[Molden Format]
made by pyscf v[2.0.1]
[Atoms] (AU)
C   1   6     0.00000000000000     0.00000000000000     0.00000000000000
C   2   6     2.85272299873892     0.00000000000000     0.00000000000000
H   3   1     3.62066923017674     0.00000000000000     1.90331545357504
F   4   9     3.65943188126013    -2.04308229183900    -1.24074875274501
F   5   9     3.65943188126013     2.04308229183900    -1.24074875274501
F   6   9    -0.80670888252121     0.86712147444210     2.22749704090168
H   7   1    -0.76794623143782    -1.87439981510865    -0.33050726003861
F   8   9    -0.80670888252121     1.57667650804493    -1.79658952118831
[GTO]
1 0
 s    8 1.00
                  6665  0.00069158396281299
                  1000  0.0053257961529341
                   228   0.027060721042034
                 64.71    0.10165684614077
                 21.06     0.2745748236174
                 7.495    0.44829431892377
                 2.797    0.28490261071525
                0.5215   0.015194859206082
 s    8 1.00
                  6665  -0.00029326965268655
                  1000  -0.0023180354739745
                   228  -0.011499786038565
                 64.71  -0.046826727009787
                 21.06   -0.12846616875047
                 7.495   -0.30126627246289
                 2.797   -0.25563070233011
                0.5215      1.093793361012
 s    1 1.00
                0.1596                   1
 p    3 1.00
                 9.439   0.056979251590039
                 2.002    0.31320721150073
                0.5456    0.76037674173753
 p    1 1.00
                0.1517                   1
 d    1 1.00
                  0.55                   1

2 0
 s    8 1.00
                  6665  0.00069158396281299
                  1000  0.0053257961529341
                   228   0.027060721042034
                 64.71    0.10165684614077
                 21.06     0.2745748236174
                 7.495    0.44829431892377
                 2.797    0.28490261071525
                0.5215   0.015194859206082
 s    8 1.00
                  6665  -0.00029326965268655
                  1000  -0.0023180354739745
                   228  -0.011499786038565
                 64.71  -0.046826727009787
                 21.06   -0.12846616875047
                 7.495   -0.30126627246289
                 2.797   -0.25563070233011
                0.5215      1.093793361012
 s    1 1.00
                0.1596                   1
 p    3 1.00
                 9.439   0.056979251590039
                 2.002    0.31320721150073
                0.5456    0.76037674173753
 p    1 1.00
                0.1517                   1
 d    1 1.00
                  0.55                   1

3 0
 s    3 1.00
                 13.01   0.033498726389998
                 1.962    0.23480080117413
                0.4446     0.8136829578829
 s    1 1.00
                 0.122                   1
 p    1 1.00
                 0.727                   1

4 0
 s    8 1.00
                 14710  0.00072067370873197
                  2207  0.0055504869689163
                 502.8   0.028254207662589
                 142.6    0.10639582836653
                 46.47    0.28668420124307
                  16.7    0.44843796582416
                 6.356    0.26464118141135
                 1.316   0.015326060993048
 s    8 1.00
                 14710  -0.00032119389049893
                  2207  -0.0025461915683188
                 502.8  -0.012643359507821
                 142.6   -0.05195749170489
                 46.47   -0.14344713812646
                  16.7   -0.33243762329603
                 6.356   -0.21865906750347
                 1.316     1.0955904138622
 s    1 1.00
                0.3897                   1
 p    3 1.00
                 22.67   0.064834021493887
                 4.977    0.34053535983101
                 1.347    0.73464640679382
 p    1 1.00
                0.3471                   1
 d    1 1.00
                  1.64                   1

5 0
 s    8 1.00
                 14710  0.00072067370873197
                  2207  0.0055504869689163
                 502.8   0.028254207662589
                 142.6    0.10639582836653
                 46.47    0.28668420124307
                  16.7    0.44843796582416
                 6.356    0.26464118141135
                 1.316   0.015326060993048
 s    8 1.00
                 14710  -0.00032119389049893
                  2207  -0.0025461915683188
                 502.8  -0.012643359507821
                 142.6   -0.05195749170489
                 46.47   -0.14344713812646
                  16.7   -0.33243762329603
                 6.356   -0.21865906750347
                 1.316     1.0955904138622
 s    1 1.00
                0.3897                   1
 p    3 1.00
                 22.67   0.064834021493887
                 4.977    0.34053535983101
                 1.347    0.73464640679382
 p    1 1.00
                0.3471                   1
 d    1 1.00
                  1.64                   1

6 0
 s    8 1.00
                 14710  0.00072067370873197
                  2207  0.0055504869689163
                 502.8   0.028254207662589
                 142.6    0.10639582836653
                 46.47    0.28668420124307
                  16.7    0.44843796582416
                 6.356    0.26464118141135
                 1.316   0.015326060993048
 s    8 1.00
                 14710  -0.00032119389049893
                  2207  -0.0025461915683188
                 502.8  -0.012643359507821
                 142.6   -0.05195749170489
                 46.47   -0.14344713812646
                  16.7   -0.33243762329603
                 6.356   -0.21865906750347
                 1.316     1.0955904138622
 s    1 1.00
                0.3897                   1
 p    3 1.00
                 22.67   0.064834021493887
                 4.977    0.34053535983101
                 1.347    0.73464640679382
 p    1 1.00
                0.3471                   1
 d    1 1.00
                  1.64                   1

7 0
 s    3 1.00
                 13.01   0.033498726389998
                 1.962    0.23480080117413
                0.4446     0.8136829578829
 s    1 1.00
                 0.122                   1
 p    1 1.00
                 0.727                   1

8 0
 s    8 1.00
                 14710  0.00072067370873197
                  2207  0.0055504869689163
                 502.8   0.028254207662589
                 142.6    0.10639582836653
                 46.47    0.28668420124307
                  16.7    0.44843796582416
                 6.356    0.26464118141135
                 1.316   0.015326060993048
 s    8 1.00
                 14710  -0.00032119389049893
                  2207  -0.0025461915683188
                 502.8  -0.012643359507821
                 142.6   -0.05195749170489
                 46.47   -0.14344713812646
                  16.7   -0.33243762329603
                 6.356   -0.21865906750347
                 1.316     1.0955904138622
 s    1 1.00
                0.3897                   1
 p    3 1.00
                 22.67   0.064834021493887
                 4.977    0.34053535983101
                 1.347    0.73464640679382
 p    1 1.00
                0.3471                   1
 d    1 1.00
                  1.64                   1

[5d]
[7f]
[9g]

[MO]
 Sym= A
 Ene=               0
 Spin= Alpha
 Occup=    1.00000
   1       1.0019141961014
   2    0.0042324507574533
   3    -0.0074769153542346
   4    -0.00057727625229074
   5    0.0010700287515982
   6    0.00023672569137439
   7    -0.0015865205930822
   8    0.0005963976205387
   9    0.00022758438253085
  10    0.00031614366152572
  11    -1.2509338751136e-05
  12    -7.5301803383793e-05
  13    -0.00010432741561376
  14    -0.00011468879310278
  15    -0.00023176218662599
  16    3.1478853724138e-05
  17    0.0032849405973035
  18    -0.00047630768791111
  19    -1.9286033796917e-05
  20    -4.183854273677e-07
  21    -0.0016080565151747
  22    -0.00011494745287288
  23    -0.00037648589406765
  24    -7.6066857220305e-05
  25    -7.3967239973563e-07
  26    -1.7474503643721e-06
  27    5.1211441182014e-05
  28    0.00011378268008399
  29    -2.1213879601327e-05
  30    0.00040573066366134
  31    -9.779359049294e-05
  32    -9.3452583108154e-07
  33    -5.5792007402345e-05
  34    1.0580287767374e-05
  35    2.5271099062203e-05
  36    -0.00025722330641934
  37    1.7941813916492e-06
  38    3.3339382548572e-07
  39    -7.8244896045537e-06
  40    -8.8107146690055e-06
  41    -3.192439546841e-05
  42    -1.0853911556327e-05
  43    -1.5479291545084e-05
  44    -4.7648129177312e-06
  45    1.5532272552532e-05
  46    1.7888174100726e-05
  47    -1.0216930711327e-05
  48    -3.452321706044e-06
  49    8.0837954968301e-06
  50    -0.00017063179511005
  51    -2.6962296815115e-05
  52    -1.541409606068e-05
  53    -1.0297132994729e-06
  54    -7.3253612447819e-05
  55    0.00010444835301904
  56    -4.3893248613269e-06
  57    -1.8983443990781e-05
  58    -9.2574590269949e-06
  59    -1.0201532111432e-06
  60    3.1920692859916e-05
  61    1.4987023501492e-05
  62    0.00015687241047967
  63    0.00067943795121358
  64    -0.00015813842973053
  65    7.3470730121361e-05
  66    -9.3661648982381e-05
  67    -0.00032178139793896
  68    -0.00014283094326619
  69    0.00030108849935765
  70    0.0008203181451293
  71    -0.00012453627125069
  72    7.6577573862258e-05
  73    -8.3682962974636e-05
  74    -9.3836383430426e-06
  75    1.8507894158562e-05
  76    0.00094193985397209
  77    0.0015289136444825
  78    0.00021872287564989
  79    6.5513256001541e-05
  80    6.0788461078278e-07
  81    0.00014231829102677
  82    0.00064954406005238
  83    -5.0530795465579e-05
  84    8.3356709682454e-05
  85    -0.00019576890028762
  86    0.00027582488115354
  87    -0.00016191205255336
  88    0.00052131364986314
  89    -0.00066559434494321
  90    -5.4862613125475e-05
  91    -6.2930116117348e-05
  92    0.00013157500794282
  93    2.5552522329787e-05
  94    4.1204152189428e-05
 Sym= A
 Ene=               1
 Spin= Alpha
 Occup=    1.00000
   1    -0.0002317631031453
   2    3.147827380175e-05
   3    0.0032849405245387
   4    0.00047630607499241
   5    -2.9380308789617e-06
   6    1.9065818612853e-05
   7    0.0016080560924721
   8    0.0003508057218963
   9    0.00017857731393009
  10    -8.937809628768e-06
  11    0.00011192560791112
  12    -1.5415190351237e-05
  13    8.9968260396378e-05
  14    -2.048652489713e-05
  15       1.0019141961044
  16    0.0042324495118516
  17    -0.0074769162654555
  18    0.00057727761683678
  19    -4.7319567079096e-05
  20    -0.0010948799019312
  21    0.0015865211159538
  22    -0.00012056354777601
  23    -0.00062685671517416
  24    -7.8450885441754e-05
  25    -0.00011511868876863
  26    5.0392141355954e-06
  27    -0.00033214678955943
  28    7.5962329056739e-06
  29    0.00094193945107603
  30    0.0015289137025193
  31    -0.00021872282985432
  32    1.0777666027338e-05
  33    -6.4623475154573e-05
  34    0.00015687211474535
  35    0.00067943757450347
  36    -0.00015813867117637
  37    -7.3468367082151e-05
  38    0.00030062732157633
  39    0.00014811631773985
  40    0.00014283247148626
  41    -0.00075557304090933
  42    -0.00043896038034264
  43    3.9730014644395e-05
  44    3.1524311274236e-05
  45    -0.00011712839308626
  46    8.5455529734501e-05
  47    7.2200403165062e-05
  48    0.0001423179157446
  49    0.0006495442603657
  50    -5.0530581416697e-05
  51    -8.3358257538941e-05
  52    -0.00030563122685062
  53    0.00014489737232404
  54    0.00016191088664597
  55    0.0007460064230263
  56    -0.000397815105176
  57    4.2460223257861e-05
  58    2.9650460915301e-05
  59    0.00011175958452817
  60    8.1741878786209e-05
  61    -6.912906192106e-05
  62    1.0580311757408e-05
  63    2.5270978401638e-05
  64    -0.00025722352641244
  65    -1.7937849950472e-06
  66    7.7637026211397e-06
  67    1.0305233673186e-06
  68    8.8110913042529e-06
  69    5.1455725191101e-06
  70    3.3324281219805e-05
  71    -3.3843525324045e-06
  72    -1.0889097261738e-05
  73    1.306969040874e-05
  74    2.487118220123e-05
  75    -2.9182711662569e-06
  76    -2.1212672713194e-05
  77    0.00040573129566722
  78    9.7793582362942e-05
  79    5.4782181553084e-05
  80    1.0608536291053e-05
  81    -3.452255534558e-06
  82    8.0841848133967e-06
  83    -0.00017063124994956
  84    2.6961810904585e-05
  85    -1.6614999102438e-06
  86    1.5358722984777e-05
  87    7.3253397382763e-05
  88    2.2460647173172e-05
  89    -0.00010209933124082
  90    -1.8479633609144e-05
  91    1.3151768451689e-05
  92    -1.1227145177433e-06
  93    3.2211567950896e-05
  94    -1.1719255175362e-05
 Sym= A
 Ene=               2
 Spin= Alpha
 Occup=    1.00000
   1    -0.00018702322956903
   2    0.00027454570180712
   3     0.003600584381788
   4    -0.00038927171420409
   5    0.0003492212140633
   6    0.00087528404106109
   7    0.00019560031514235
   8    0.00089288270119999
   9    0.0013240848992166
  10    9.717374236471e-05
  11    -7.4115173525906e-05
  12    6.0394425172632e-05
  13    1.126597553567e-05
  14    -4.9002918737642e-05
  15    7.9391848555893e-05
  16    0.00011126507584898
  17    -0.0015509301165277
  18    0.00014191053333992
  19    1.6137583900656e-05
  20    3.4860209042867e-05
  21    0.00065448998500005
  22    -0.00019580668921394
  23    -0.00026944180784135
  24    9.2322476534666e-05
  25    3.8046913105582e-05
  26    3.0939025529145e-05
  27    -1.8249804145617e-05
  28    1.4151979605645e-05
  29    5.9567067901695e-05
  30    6.1871425276573e-05
  31    3.9613814350878e-05
  32    8.0196122200991e-06
  33    6.547688857403e-06
  34    -2.5256946536013e-05
  35    -4.2972524127147e-05
  36    0.00015075019575052
  37    1.3137501972401e-05
  38    8.4520310151231e-06
  39    9.864997387811e-06
  40    -0.00015736291494635
  41    3.6462591620702e-05
  42    3.2138743288415e-05
  43    7.641924933311e-06
  44    -9.1931955204767e-07
  45    8.5281762871846e-06
  46    2.3437962692113e-06
  47    6.1396443141324e-10
  48    2.4018199098139e-06
  49    9.8488770904907e-06
  50    0.00010976290407459
  51    -2.6967479823273e-05
  52    -5.4935490265949e-06
  53    7.7886450375117e-06
  54    2.7356329857577e-05
  55    -4.4135787745252e-05
  56    2.5927561796614e-05
  57    1.2345491779158e-05
  58    5.6147831781826e-06
  59    -6.3765048873354e-06
  60    -1.0505962611285e-05
  61    3.5443378982106e-06
  62       1.0010247564279
  63    0.00089301911889265
  64    -0.0056397798069508
  65    0.00073631452534612
  66    -0.00080311964726393
  67    -0.0020234476229197
  68    -0.00026977713144842
  69    0.00015686679891536
  70    0.00061619756673275
  71    -9.3208719848262e-05
  72    6.5373164517986e-05
  73    -6.2099372182164e-05
  74    1.2323760463803e-05
  75    2.9655913730474e-05
  76    -0.00022179021434951
  77    -7.8063067843692e-05
  78    9.7000099640941e-06
  79    -7.452512028381e-05
  80    -0.00014311870375588
  81    9.9122046596471e-05
  82    0.00016629481496612
  83    -0.00071380196057799
  84    -5.0061945256689e-06
  85    4.7153901094953e-05
  86    -2.5680380768745e-05
  87    -3.3509602644047e-05
  88    -6.483495603202e-05
  89    -0.0004349610927345
  90    -2.187933915855e-05
  91    -1.3625959146706e-05
  92    1.1218407927259e-05
  93    -5.7487411822535e-06
  94    -1.0038513716166e-05
 Sym= A
 Ene=               3
 Spin= Alpha
 Occup=    1.00000
   1    7.9390508696227e-05
   2    0.00011125028022346
   3    -0.0015509614517662
   4    -0.00014194071822551
   5    -3.1562379168931e-05
   6    -2.1965703574639e-05
   7    -0.00065456828430276
   8    0.00023128074722448
   9    0.00023958248816768
  10    -1.7494379119946e-05
  11    2.0529957184213e-05
  12    5.3298956372962e-05
  13    -8.1648730813483e-05
  14    3.4994765170858e-05
  15    -0.00018697510888932
  16    0.00027492133056226
  17    0.0036006898885266
  18    0.00038943830224649
  19    -0.00080177698228753
  20    -0.00049616957635266
  21    -0.00019563185270528
  22    -0.0011489346568548
  23    -0.0011092020695498
  24    -3.576518214134e-05
  25    -6.1127311012499e-05
  26    8.7494508670371e-05
  27    -6.5508127253359e-05
  28    -6.4484454977838e-05
  29    -0.00022177680980954
  30    -7.8138293508827e-05
  31    -9.6897344887882e-06
  32    0.00012798694197366
  33    9.8235295023875e-05
  34       1.0010247564255
  35    0.00089091701891518
  36    -0.0056422541342865
  37    -0.00073708931836409
  38     0.001854461031082
  39    0.0011430418008355
  40    0.00026925770152253
  41    -0.0005787815951991
  42    -0.00026098334662429
  43    1.3637966703568e-05
  44    4.0541799672348e-05
  45    -8.3825630249048e-05
  46    7.3997884068343e-05
  47    5.920571420539e-05
  48    9.9119284534534e-05
  49    0.00016628659495712
  50    -0.00071378996616761
  51    5.0098596454036e-06
  52    3.3490583138425e-05
  53    -4.1979777919756e-05
  54    3.3507190525488e-05
  55    0.00041710622055031
  56    0.0001393807256873
  57    1.8096555080325e-05
  58    -1.2249475315697e-05
  59    3.0771982850277e-06
  60    1.7327855720824e-05
  61    -1.1674981371234e-05
  62    -2.5256686234159e-05
  63    -4.2966409385268e-05
  64    0.00015077536987776
  65    -1.3119528268159e-05
  66    -8.248497166575e-06
  67    -1.0045646446139e-05
  68    0.00015738098258659
  69    -2.531355985309e-05
  70    -4.1496126098363e-05
  71    -2.9178306980884e-06
  72    -1.5791050036362e-07
  73    1.0677832089645e-05
  74    -3.7538590899716e-06
  75    -9.0517633226739e-07
  76    5.9570284224372e-05
  77    6.1784510195094e-05
  78    -3.9615465006994e-05
  79    -5.0574968546383e-06
  80    -9.0340576143362e-06
  81    2.4010613614079e-06
  82    9.8491914344318e-06
  83    0.00010977423606383
  84    2.6973014383173e-05
  85    -8.621513208063e-06
  86    4.0620665401794e-06
  87    -2.7338166133016e-05
  88    -3.3189032708149e-05
  89    3.897196333039e-05
  90    1.3210533718626e-06
  91    4.4646349391448e-06
  92    -4.1318262150994e-06
  93    -1.6871495367027e-05
  94    4.9141366124856e-06
 Sym= A
 Ene=               4
 Spin= Alpha
 Occup=    1.00000
   1    -0.00018770894992442
   2    0.0002877171356388
   3    0.0035960162045045
   4    -0.00040683872269675
   5    0.00065115730433269
   6    -0.00071853855158398
   7    0.00019621808425943
   8    0.0012779749577497
   9    -0.0010054058250282
  10    3.6068191236858e-05
  11    5.6422077802207e-05
  12    -9.8845227862201e-05
  13    -1.9084857192862e-05
  14    -5.6218710509694e-05
  15    6.2936173754732e-05
  16    7.7778388992237e-05
  17    -0.0015163004353496
  18    0.00013296350570636
  19    -8.2102238956864e-06
  20    6.5972179453352e-07
  21    0.00061344631051963
  22    -0.00039102426552425
  23    0.00033170297646552
  24    3.3999319629568e-05
  25    -1.7612785877391e-06
  26    -5.740215637359e-05
  27    -3.5420641284112e-05
  28    3.7671408088801e-05
  29    5.8563243400982e-05
  30    -4.0613886120326e-06
  31    -2.9176966055656e-05
  32    5.6674482468069e-05
  33    -1.5010279745556e-05
  34    1.9917395301134e-06
  35    1.0579905291548e-05
  36    8.8961547147649e-05
  37    -2.0507752768737e-05
  38    9.685278702212e-06
  39    1.0414870941108e-05
  40    -1.5505257094482e-05
  41    5.8246183184753e-05
  42    -9.9031851729862e-06
  43    -3.2759874280128e-06
  44    -5.1199852350169e-06
  45    1.7175436954563e-06
  46    -1.6208236127926e-05
  47    2.3488756978795e-06
  48    -5.0400154853264e-05
  49    -0.00010232740808368
  50    0.00032533675844057
  51    1.4885771721797e-05
  52    3.3803732348589e-05
  53    -3.878889870827e-06
  54    8.3699476065402e-07
  55    -9.4633071580746e-05
  56    9.174507653832e-06
  57    1.366378093028e-05
  58    2.8140528039928e-06
  59    5.4915841651482e-06
  60    -1.058462157459e-05
  61    -2.4281633763497e-06
  62    9.6294119175693e-05
  63    0.00016013027150035
  64    -0.00068762230645362
  65    -5.7824265420965e-07
  66    3.2886710467095e-05
  67    4.4403045137821e-05
  68    -4.8473543635768e-05
  69    -0.00020466956939664
  70    0.00037857303566689
  71    -2.1840696602488e-05
  72    9.9571319731035e-06
  73    5.3949936048467e-06
  74    -7.9794493903108e-06
  75    -1.334387873225e-05
  76    -0.00025068059804706
  77    -8.2245760572337e-05
  78    4.3520611179952e-06
  79    -0.00012179849528949
  80    0.00011330747937135
  81        1.001019581477
  82    0.00077403010696314
  83    -0.005754226300146
  84    0.00069270198694014
  85    -0.0015221857935945
  86    0.0016985601143651
  87    -0.00026647566962212
  88    0.00034041076950131
  89    -0.00049206032789477
  90    -4.1425170610693e-05
  91    -5.2889230727292e-05
  92    9.4005441539644e-05
  93    4.2499114887222e-05
  94    5.4054614934964e-05
 Sym= A
 Ene=               5
 Spin= Alpha
 Occup=    1.00000
   1    6.2929538694146e-05
   2    7.7773407606161e-05
   3    -0.0015162136907967
   4    -0.00013294682319651
   5    -2.1058760335281e-06
   6    7.9959798836936e-06
   7    -0.00061340795416037
   8    -0.0003945704037538
   9    0.00032752712341085
  10    -2.7066567897259e-06
  11    3.6814028369648e-05
  12    -4.9931060902828e-05
  13    -5.6622393179991e-05
  14    -8.3018576095961e-06
  15    -0.00018777146409672
  16    0.00028725285331208
  17    0.0035959123744983
  18    0.00040663658321897
  19    0.00082017890193603
  20    -0.0005161734942441
  21    -0.00019621367234714
  22    0.0012120068859286
  23    -0.0010840147725691
  24    -2.9649926149615e-05
  25    -4.5561018979153e-05
  26    -8.5428055463539e-05
  27    -5.7012560500467e-05
  28    6.5313105609037e-05
  29    -0.00025069141733335
  30    -8.2140207478732e-05
  31    -4.3637323117388e-06
  32    -0.00013275408136432
  33    0.00010028431027168
  34    9.6297663552281e-05
  35    0.00016014501021757
  36    -0.00068763246544636
  37    5.7348610110438e-07
  38    -3.7991404261872e-05
  39    -4.0090602499692e-05
  40    4.8475093242779e-05
  41    -0.00040833750403078
  42    0.00013582105917712
  43    1.8238281743773e-05
  44    -1.1415090569655e-05
  45    -2.7651014065786e-06
  46    1.5164296564696e-05
  47    1.2123721125481e-05
  48       1.0010195825084
  49    0.00077658039450385
  50    -0.0057512125758426
  51    -0.00069199109316263
  52    -0.0019355501110436
  53    0.0012031940091006
  54    0.00026695349818827
  55    0.00054471692035086
  56    -0.00025039655919158
  57    1.099469173525e-05
  58    4.4064874572155e-05
  59    8.3371027707341e-05
  60    7.2783823294429e-05
  61    -6.1497601513752e-05
  62    1.9940516967681e-06
  63    1.0580941112852e-05
  64    8.8929251602955e-05
  65    2.0498957424055e-05
  66    -8.5698101997323e-06
  67    -1.1346612381982e-05
  68    1.5490317897479e-05
  69    1.9873984509862e-05
  70    -5.5637741546357e-05
  71    1.561166478568e-05
  72    1.4236905571438e-06
  73    -2.1278015231921e-06
  74    -5.302785517288e-06
  75    -5.4510059852936e-06
  76    5.8551164205877e-05
  77    -4.0902756307465e-06
  78    2.9180920379531e-05
  79    2.4627816353418e-05
  80    -5.3207852830114e-05
  81    -5.0402144299471e-05
  82    -0.00010233382829011
  83    0.00032534368662339
  84    -1.490665049444e-05
  85    9.6681334825096e-06
  86    -3.2603795749256e-05
  87    -8.4252281305622e-07
  88    -2.5472618957134e-05
  89    9.1600658211844e-05
  90    4.3020437472113e-06
  91    -1.9034699839339e-06
  92    7.3984281243612e-06
  93    -1.598851190181e-05
  94    3.1943407302286e-06
 Sym= A
 Ene=               6
 Spin= Alpha
 Occup=    1.00000
   1    0.00085749412026305
   2      0.02566778728515
   3     0.081195636282332
   4     0.048757684336696
   5    0.0057140759523947
   6    -0.0034637052957038
   7     0.053296790718132
   8     -0.01484911640224
   9    0.0031360367929442
  10    1.3408769255264e-05
  11    -0.0021327534305669
  12    0.00055907205464813
  13    0.0010604706492912
  14     0.001680189516692
  15    0.0028119729983318
  16    -0.00023924601897027
  17     -0.03743705918086
  18    0.0024382177136599
  19    -0.0017637283228869
  20    0.0031611834819284
  21     0.046160558367568
  22     0.019536460166235
  23    0.0073721599214658
  24    -0.024084789850974
  25    -0.010843006472991
  26     0.017868731957317
  27     0.011321886306766
  28     0.027071729620921
  29    -0.050350950732929
  30    -0.047769277519189
  31    -0.0020575400134057
  32    -0.0031376504060528
  33    0.00046280725794225
  34    -0.00081195121719473
  35    -9.7165469865618e-05
  36     0.010537781486553
  37    -0.0038370946121812
  38     0.002463159057605
  39    -0.0014300163520273
  40    -0.0073010296992446
  41    0.0017119793962262
  42    0.0015130653118911
  43    -0.00052805391298813
  44    -0.00025743435768669
  45    0.00034153203930111
  46    0.00035169612966313
  47    0.00034834530503301
  48    0.00093223033208879
  49    0.0075338543902315
  50    -0.0015113183439046
  51      0.54856561396444
  52      0.02976838575452
  53      0.38401452006139
  54      0.37903940242965
  55     0.023026378255727
  56      0.26400588722562
  57    0.0070928434484471
  58    0.0031946622078291
  59    -0.0061373566297338
  60    -0.0030980667655334
  61    -0.0098824248864027
  62    2.3205241878783e-05
  63    -0.00089992412968616
  64    -0.0022614461724579
  65    -0.0043135535208342
  66    0.00063390106296572
  67    0.0028660443625807
  68    -0.0090052486323293
  69    0.0033395374635148
  70    0.0021648309098123
  71    -0.000135172485537
  72    -0.00061828140071644
  73    -0.00030728372641478
  74    0.00027152964243965
  75    -0.00017973627123353
  76    -0.012975032730968
  77     -0.01509399630329
  78    0.0024204230392433
  79    -0.00073861263114037
  80    -0.000967755835463
  81    0.0011409148545949
  82    0.0072327883900091
  83      0.00573226475607
  84     0.012538482783635
  85    0.0012255109533723
  86    -0.00025870129575103
  87    -0.00040851913006651
  88    -0.00040621948629087
  89    0.0036549673291381
  90    0.0010259695544442
  91    0.00081199885994802
  92    -0.00035741285311165
  93    -0.0012937049883735
  94    -0.0011759228073935
 Sym= A
 Ene=               7
 Spin= Alpha
 Occup=    1.00000
   1    -0.0028121915722839
   2    0.00023758897155171
   3     0.037436508850118
   4    0.0024389391144061
   5    0.0034180131579263
   6    -0.0011867063453423
   7     0.046160632444169
   8    0.0038676562782889
   9     0.020519704299019
  10    -0.0067360870596002
  11    -0.024777695248183
  12    -0.011593285470894
  13    -0.029116414138421
  14     0.015379377449832
  15    -0.00085753907835149
  16    -0.025667960114887
  17    -0.081195439716835
  18     0.048757884574144
  19    -0.0044034318445885
  20    0.0050259266183208
  21     0.053296742471162
  22    0.0056668458712394
  23    -0.014079008806767
  24    0.00073120622850857
  25    -0.0012843865887521
  26    -0.00071068424943332
  27    -0.00063060626947361
  28    0.0023922048965644
  29     0.012975078301406
  30     0.015094020852771
  31    0.0024204133795232
  32    -0.00082479326293345
  33    -0.00089546286817043
  34    -2.3193513640183e-05
  35    0.00089993889220214
  36    0.0022613323759368
  37    -0.0043135443762808
  38    0.0027124293197341
  39    0.0011219617220407
  40    -0.0090052094553787
  41    0.0015520221742706
  42    0.0036647168622102
  43    0.00025760739454988
  44    0.00028436905486068
  45    0.00028235778881946
  46    -0.00020084241391106
  47    0.00057767971764154
  48    -0.0011409186255012
  49    -0.0072328243371689
  50    -0.0057323119959357
  51     0.012538596611157
  52    -0.00046754932009592
  53    0.0011621212254069
  54    -0.00040848175290798
  55    0.0036700532320559
  56    0.00023468369567953
  57    -0.00051415113967883
  58    0.0010170667766829
  59    0.00025320799813324
  60    0.0015892121281456
  61     -0.00100386610932
  62    0.00081194950701681
  63    9.7328220710343e-05
  64    -0.010537443153899
  65    -0.0038370178638619
  66    -0.0018360539480457
  67    0.0021770012507735
  68    -0.007300980340196
  69    0.0011927914474994
  70    0.0019483242094748
  71    -4.5938107628038e-05
  72    -0.00029835261891751
  73    -0.00022466010158125
  74    -0.00068307650203952
  75    0.00031400720185703
  76       0.0503508099084
  77     0.047769564222238
  78    -0.0020574989522315
  79    0.0010005762893855
  80    -0.0030095585693099
  81    -0.00093249086332915
  82    -0.0075250456338033
  83    0.0015217471499241
  84      0.54856580674898
  85      0.37301318540022
  86     0.095992095323053
  87      0.37903958708876
  88      0.25599777112564
  89     0.068515661856831
  90    0.0024412580744455
  91    0.0091774848286671
  92    0.0041962902391514
  93    0.0086026852726342
  94    -0.0048621816130041
 Sym= A
 Ene=               8
 Spin= Alpha
 Occup=    1.00000
   1    0.0021244512215597
   2     0.034890319809589
   3     0.080660278542417
   4     0.043625433084708
   5    -0.0077751080339526
   6    -0.0017702658242189
   7     0.024684609789041
   8     0.009176585454636
   9     0.016554211017143
  10    -0.0011931704300963
  11    -0.001393019718862
  12    -0.0011838596353786
  13    0.0014285941449943
  14    -0.00039019936969025
  15    0.0029420307139037
  16     0.003602298107497
  17      -0.0141646314784
  18    0.00070292982996944
  19    -0.00039568289866342
  20    -0.00067172223475285
  21     0.035060513359717
  22    -0.016430126499299
  23    0.0063877553474531
  24    -0.022739592665416
  25    -0.010735274977395
  26    -0.016847908682801
  27     0.012334959530723
  28    -0.026413554176459
  29    -0.051075353044402
  30    -0.049385272610263
  31    -0.0016222103777311
  32    0.0029060448686229
  33    0.0010176715416063