[Molden Format]
made by pyscf v[2.0.1]
[Atoms] (AU)
C   1   6     0.00000000000000     0.00000000000000     0.00000000000000
C   2   6     2.85272299873892     0.00000000000000     0.00000000000000
H   3   1     3.62066923017674     0.00000000000000     1.90331545357504
F   4   9     3.65943188126013    -2.04308229183900    -1.24074875274501
F   5   9     3.65943188126013     2.04308229183900    -1.24074875274501
F   6   9    -0.80670888252121     2.36262976149657    -0.36279929541696
H   7   1    -0.76794623143782    -1.22342759088295    -1.45802422671364
F   8   9    -0.80670888252121    -0.76755391149953     2.26373667011121
[GTO]
1 0
 s    8 1.00
                  6665  0.00069158396281299
                  1000  0.0053257961529341
                   228   0.027060721042034
                 64.71    0.10165684614077
                 21.06     0.2745748236174
                 7.495    0.44829431892377
                 2.797    0.28490261071525
                0.5215   0.015194859206082
 s    8 1.00
                  6665  -0.00029326965268655
                  1000  -0.0023180354739745
                   228  -0.011499786038565
                 64.71  -0.046826727009787
                 21.06   -0.12846616875047
                 7.495   -0.30126627246289
                 2.797   -0.25563070233011
                0.5215      1.093793361012
 s    1 1.00
                0.1596                   1
 p    3 1.00
                 9.439   0.056979251590039
                 2.002    0.31320721150073
                0.5456    0.76037674173753
 p    1 1.00
                0.1517                   1
 d    1 1.00
                  0.55                   1

2 0
 s    8 1.00
                  6665  0.00069158396281299
                  1000  0.0053257961529341
                   228   0.027060721042034
                 64.71    0.10165684614077
                 21.06     0.2745748236174
                 7.495    0.44829431892377
                 2.797    0.28490261071525
                0.5215   0.015194859206082
 s    8 1.00
                  6665  -0.00029326965268655
                  1000  -0.0023180354739745
                   228  -0.011499786038565
                 64.71  -0.046826727009787
                 21.06   -0.12846616875047
                 7.495   -0.30126627246289
                 2.797   -0.25563070233011
                0.5215      1.093793361012
 s    1 1.00
                0.1596                   1
 p    3 1.00
                 9.439   0.056979251590039
                 2.002    0.31320721150073
                0.5456    0.76037674173753
 p    1 1.00
                0.1517                   1
 d    1 1.00
                  0.55                   1

3 0
 s    3 1.00
                 13.01   0.033498726389998
                 1.962    0.23480080117413
                0.4446     0.8136829578829
 s    1 1.00
                 0.122                   1
 p    1 1.00
                 0.727                   1

4 0
 s    8 1.00
                 14710  0.00072067370873197
                  2207  0.0055504869689163
                 502.8   0.028254207662589
                 142.6    0.10639582836653
                 46.47    0.28668420124307
                  16.7    0.44843796582416
                 6.356    0.26464118141135
                 1.316   0.015326060993048
 s    8 1.00
                 14710  -0.00032119389049893
                  2207  -0.0025461915683188
                 502.8  -0.012643359507821
                 142.6   -0.05195749170489
                 46.47   -0.14344713812646
                  16.7   -0.33243762329603
                 6.356   -0.21865906750347
                 1.316     1.0955904138622
 s    1 1.00
                0.3897                   1
 p    3 1.00
                 22.67   0.064834021493887
                 4.977    0.34053535983101
                 1.347    0.73464640679382
 p    1 1.00
                0.3471                   1
 d    1 1.00
                  1.64                   1

5 0
 s    8 1.00
                 14710  0.00072067370873197
                  2207  0.0055504869689163
                 502.8   0.028254207662589
                 142.6    0.10639582836653
                 46.47    0.28668420124307
                  16.7    0.44843796582416
                 6.356    0.26464118141135
                 1.316   0.015326060993048
 s    8 1.00
                 14710  -0.00032119389049893
                  2207  -0.0025461915683188
                 502.8  -0.012643359507821
                 142.6   -0.05195749170489
                 46.47   -0.14344713812646
                  16.7   -0.33243762329603
                 6.356   -0.21865906750347
                 1.316     1.0955904138622
 s    1 1.00
                0.3897                   1
 p    3 1.00
                 22.67   0.064834021493887
                 4.977    0.34053535983101
                 1.347    0.73464640679382
 p    1 1.00
                0.3471                   1
 d    1 1.00
                  1.64                   1

6 0
 s    8 1.00
                 14710  0.00072067370873197
                  2207  0.0055504869689163
                 502.8   0.028254207662589
                 142.6    0.10639582836653
                 46.47    0.28668420124307
                  16.7    0.44843796582416
                 6.356    0.26464118141135
                 1.316   0.015326060993048
 s    8 1.00
                 14710  -0.00032119389049893
                  2207  -0.0025461915683188
                 502.8  -0.012643359507821
                 142.6   -0.05195749170489
                 46.47   -0.14344713812646
                  16.7   -0.33243762329603
                 6.356   -0.21865906750347
                 1.316     1.0955904138622
 s    1 1.00
                0.3897                   1
 p    3 1.00
                 22.67   0.064834021493887
                 4.977    0.34053535983101
                 1.347    0.73464640679382
 p    1 1.00
                0.3471                   1
 d    1 1.00
                  1.64                   1

7 0
 s    3 1.00
                 13.01   0.033498726389998
                 1.962    0.23480080117413
                0.4446     0.8136829578829
 s    1 1.00
                 0.122                   1
 p    1 1.00
                 0.727                   1

8 0
 s    8 1.00
                 14710  0.00072067370873197
                  2207  0.0055504869689163
                 502.8   0.028254207662589
                 142.6    0.10639582836653
                 46.47    0.28668420124307
                  16.7    0.44843796582416
                 6.356    0.26464118141135
                 1.316   0.015326060993048
 s    8 1.00
                 14710  -0.00032119389049893
                  2207  -0.0025461915683188
                 502.8  -0.012643359507821
                 142.6   -0.05195749170489
                 46.47   -0.14344713812646
                  16.7   -0.33243762329603
                 6.356   -0.21865906750347
                 1.316     1.0955904138622
 s    1 1.00
                0.3897                   1
 p    3 1.00
                 22.67   0.064834021493887
                 4.977    0.34053535983101
                 1.347    0.73464640679382
 p    1 1.00
                0.3471                   1
 d    1 1.00
                  1.64                   1

[5d]
[7f]
[9g]

[MO]
 Sym= A
 Ene=               0
 Spin= Alpha
 Occup=    1.00000
   1       1.0019125695487
   2    0.0042299703725989
   3    -0.0074450209593637
   4    -0.00057040209792851
   5    0.00068100782786505
   6    0.00089451480196554
   7    -0.0015819931208869
   8    0.00039363115165049
   9    0.0006021443665712
  10    9.7559310486911e-05
  11    -8.8120727135158e-05
  12    -0.00023706497805821
  13    -0.00022926807245332
  14    -7.1195724008832e-05
  15    -0.00022350163829361
  16    5.076258189365e-05
  17    0.0032392511648624
  18    -0.00047181923709527
  19    -1.4860228622154e-05
  20    5.2860351424527e-06
  21    -0.001579375979872
  22    -9.6757998080437e-05
  23    -0.0004238059190689
  24    -5.139615526947e-05
  25    7.3542591108056e-05
  26    1.6830967920298e-05
  27    6.4765573724631e-05
  28    7.6454719806716e-05
  29    -4.172863858493e-05
  30    0.00041964926630017
  31    -9.6919624751303e-05
  32    -4.9486455145453e-06
  33    -2.9581952683322e-05
  34    1.1237619169155e-05
  35    2.5847458027196e-05
  36    -0.00026132333147197
  37    2.6610201922825e-06
  38    1.2938521518014e-06
  39    -1.3160572463057e-05
  40    -1.0937406839787e-05
  41    -6.19699747298e-05
  42    4.0920242570243e-05
  43    -1.519852257791e-05
  44    -9.613025106928e-06
  45    1.5516772026446e-05
  46    1.7572778825423e-05
  47    -7.2754440418052e-06
  48    -1.0357806557544e-05
  49    -7.2373185493292e-06
  50    -0.00013310126301766
  51    -1.5456079878223e-05
  52    -1.3911448616779e-05
  53    -3.1688010849362e-06
  54    -8.9294209906965e-05
  55    8.9068225411391e-05
  56    8.1710089874183e-06
  57    -2.037021556386e-05
  58    -1.0272962350478e-05
  59    -7.6182574232424e-06
  60    2.7822455642154e-05
  61    1.4294846063818e-05
  62    0.0001439190567709
  63    0.00065299158884619
  64    -7.3389942403175e-05
  65    7.8964088987615e-05
  66    -0.00032698946152155
  67    8.7436687127784e-05
  68    -0.00014400501950895
  69    0.00083079209868853
  70    -0.00018276769122402
  71    8.059783109084e-05
  72    -2.1503562012958e-05
  73    5.7064222779727e-05
  74    0.00010530541909743
  75    7.1701370266357e-05
  76    0.00096494093254496
  77    0.0015486415639047
  78    0.00022004128190621
  79    5.5421424502756e-05
  80    4.830128904507e-05
  81    0.00016266451264508
  82    0.00069026852333446
  83    -0.00019249072320414
  84    7.3648777864565e-05
  85    0.00013997043988502
  86    -0.00030390184240691
  87    -0.00014987534342652
  88    -0.00032729483691122
  89    0.00082504640212258
  90    -0.00011649533255579
  91    7.144003085072e-05
  92    9.921370194358e-05
  93    -3.5215069676349e-06
  94    -3.6370685954419e-05
 Sym= A
 Ene=               1
 Spin= Alpha
 Occup=    1.00000
   1    -0.00022350019286854
   2    5.0800160871662e-05
   3    0.0032392681874916
   4    0.00047188478373637
   5    -1.4778317294342e-05
   6    5.5069089300742e-06
   7    0.0015793913195242
   8    0.00019829761940806
   9    0.00038685285386452
  10    -2.8365526632825e-05
  11    0.00010548217669031
  12    -1.4865954604359e-05
  13    7.806900496604e-05
  14    -1.1295606139385e-05
  15       1.0019125697996
  16    0.0042299734524229
  17    -0.0074449929098371
  18    0.00057031371624955
  19    -5.3300433369058e-05
  20    -0.001122967149737
  21     0.001581965411301
  22    -8.5512512755572e-05
  23    -0.00071429299795819
  24    -8.3055640941246e-05
  25    -0.00011326351374544
  26    1.1479059644264e-05
  27    -0.00033353743484481
  28    -2.103947008667e-06
  29    0.00096492504922843
  30    0.0015486323805122
  31    -0.00022004240890974
  32    1.1407907191135e-05
  33    -7.2622993725664e-05
  34    0.00016266529344105
  35    0.00069024811606229
  36    -0.0001925137513293
  37    -7.3658211830926e-05
  38    0.00030252830389493
  39    0.00014281585787063
  40    0.00014987284943958
  41    -0.00078107749540671
  42    -0.00042165051719606
  43    4.1580739133758e-05
  44    3.1347318185706e-05
  45    -0.00011831893303369
  46    8.7745483402339e-05
  47    7.3782062696715e-05
  48    0.00014391953882159
  49    0.00065297261256629
  50    -7.341179376006e-05
  51    -7.8976490507071e-05
  52    -0.00030664469278925
  53    0.00014319589285863
  54    0.00014400115454011
  55    0.00075393493064924
  56    -0.0003940191347196
  57    4.1634365223904e-05
  58    2.9615692605436e-05
  59    0.0001106844454833
  60    8.2811569034022e-05
  61    -6.8748346893752e-05
  62    -1.0357771193022e-05
  63    -7.2375044987568e-06
  64    -0.00013310417037296
  65    1.5442207803187e-05
  66    -8.6185800488294e-06
  67    1.136873915787e-05
  68    8.9280462221537e-05
  69    6.2979003796363e-05
  70    -6.3512582296084e-05
  71    -2.4198447699294e-05
  72    1.3190860341751e-06
  73    -2.3504192277491e-06
  74    2.5612638725151e-05
  75    -1.7554399386458e-05
  76    -4.1737514983552e-05
  77    0.00041963957479166
  78    9.6921097112531e-05
  79    1.5223928545377e-05
  80    2.5841747818764e-05
  81    1.1237591204908e-05
  82    2.5848474177342e-05
  83    -0.00026132555147636
  84    -2.6704413568722e-06
  85    9.4488687402115e-06
  86    9.2530442099338e-06
  87    1.0926827119313e-05
  88    -7.3776362168814e-05
  89    8.4889320928278e-06
  90    1.1666008078444e-06
  91    -1.2041234860776e-05
  92    -7.0039765570917e-06
  93    2.7021595555226e-05
  94    -6.0560598024605e-07
 Sym= A
 Ene=               2
 Spin= Alpha
 Occup=    1.00000
   1    -0.00019887969982203
   2    0.00027554299096786
   3    0.0038697867965837
   4    -0.00039710799433299
   5    0.00096782826329777
   6    -0.00013686643813084
   7    0.00029439676557337
   8    0.0016539000594659
   9    9.1268273537818e-05
  10    -6.6493924444083e-05
  11    -1.1568365462276e-05
  12    -4.6329203107299e-05
  13    -7.5050591890216e-05
  14    -8.7683430283703e-05
  15    7.1101114588254e-05
  16    8.6863405039394e-05
  17    -0.0016817225452798
  18    0.00011515267140593
  19    3.7907795614977e-06
  20    -7.6703157943932e-07
  21    0.00084772581752806
  22    -0.00044405412779789
  23    7.8498923600202e-05
  24    -1.8850120922683e-05
  25    -4.442599310313e-06
  26    -3.2365337245781e-05
  27    -7.1909744960711e-05
  28    2.5553445619926e-05
  29    0.00013440804536052
  30    -0.00011841957824403
  31    -7.1516090611351e-06
  32    3.9939179029146e-05
  33    -1.2509668045737e-05
  34    -2.1140553827374e-05
  35    -3.472687700332e-05
  36    0.00012589022016136
  37    1.5889725188534e-05
  38    1.0607367293762e-05
  39    8.0743291145909e-06
  40    -0.00017819794153583
  41    5.6655026734301e-05
  42    -1.4076353671641e-05
  43    -1.0019421606664e-05
  44    -1.1708578946403e-06
  45    -3.7691878934648e-06
  46    -7.7113790818291e-06
  47    -4.0046234712449e-06
  48    -4.4229839416048e-05
  49    -8.9654828486013e-05
  50    0.00028461526126085
  51    2.4603963652142e-05
  52    1.3698972060488e-05
  53    -2.9978994219557e-05
  54    -4.414215142737e-05
  55    -4.0693560803613e-05
  56    7.828847435149e-05
  57    1.0470162249285e-05
  58    3.2118949502857e-06
  59    7.8404824352583e-06
  60    -1.1805026520875e-05
  61    6.3455119626186e-07
  62       1.0010288107039
  63    0.00076161071245329
  64    -0.0058461446910024
  65    0.00070718874930626
  66    -0.0022770717673196
  67    0.00033900816610365
  68    -0.00027389734348306
  69    0.00056827142940879
  70    -0.00017886079561223
  71    4.8754539336607e-05
  72    -8.489997498361e-06
  73    3.207865368157e-05
  74    9.4557563441052e-05
  75    7.4527871556138e-05
  76    -0.00023850231812644
  77    -7.234280957987e-05
  78    8.0055636196047e-06
  79    -0.00016389667091802
  80    9.1264018964141e-06
  81    0.00010136780878584
  82    0.00016946679796852
  83    -0.00073198877637433
  84    -2.7534909686351e-06
  85    9.1814338292135e-08
  86    5.6496415404457e-05
  87    -4.5178085692276e-05
  88    -0.00042056746757719
  89    0.00017277300433339
  90    -2.5476245491198e-06
  91    -1.2186367194534e-06
  92    2.5141608823778e-05
  93    6.4146923665797e-06
  94    -1.6905854983842e-05
 Sym= A
 Ene=               3
 Spin= Alpha
 Occup=    1.00000
   1    7.1104320075135e-05
   2    8.6880170588881e-05
   3    -0.0016817021673945
   4    -0.00011514483394185
   5    3.4004395801873e-06
   6    -1.8558591118495e-06
   7    -0.00084770702547981
   8    -0.00039063869886316
   9    0.00022527823815995
  10    -9.0371609375368e-06
  11    1.3010981594216e-05
  12    -4.5863760221816e-05
  13    -6.6239671038253e-05
  14    -2.2411695263165e-05
  15    -0.00019883910812582
  16    0.00027581952312008
  17     0.003869796465496
  18    0.00039724573203849
  19    0.00082974091000188
  20    -0.00051746990898579
  21    -0.000294360101322
  22     0.001208327133103
  23    -0.0011329823689583
  24    -3.7963239858166e-05
  25    -6.5234391284533e-05
  26    -8.5645752732938e-05
  27    -5.8573255971567e-05
  28    5.9772418629273e-05
  29    -0.00023855085073701
  30    -7.2450482035356e-05
  31    -7.9995601486529e-06
  32    -0.00013140794838316
  33     9.83536816437e-05
  34    0.00010136505020573
  35    0.00016943537606563
  36    -0.00073198807399747
  37    2.7078748441537e-06
  38    -3.6383466340979e-05
  39    -4.3273080406217e-05
  40    4.5137252124977e-05
  41    -0.00043332474350119
  42    0.00013803547379493
  43    1.817615171522e-05
  44    -1.1799489571948e-05
  45    -3.3798915519715e-06
  46    1.8378904632336e-05
  47    1.2167767142207e-05
  48       1.0010288089279
  49    0.00076012566239826
  50    -0.0058479076863831
  51    -0.0007072094079099
  52    -0.0019632463147274
  53    0.0012048451256623
  54    0.00027389229398613
  55    0.00054962586070397
  56    -0.0002276810502627
  57     1.20622160635e-05
  58    4.1393935272883e-05
  59    8.2542097296536e-05
  60    7.335400351152e-05
  61    -6.2539621565358e-05
  62    -4.42290066147e-05
  63    -8.9652688190256e-05
  64    0.00028462424395448
  65    -2.4613547728868e-05
  66    2.9782144955143e-05
  67    1.4154736207241e-05
  68    4.412546358576e-05
  69     -8.1495938222e-05
  70    -3.380759018087e-05
  71    1.4892189826371e-05
  72    2.8693294477125e-06
  73    1.7553976330478e-06
  74    -9.2536900878175e-06
  75    1.5779886613445e-06
  76    0.00013441289059222
  77    -0.00011842088013314
  78    7.1515476547068e-06
  79    3.8636226483141e-05
  80    -1.6090439432696e-05
  81    -2.1139881968758e-05
  82    -3.4712469939244e-05
  83    0.00012590833260644
  84    -1.5843209870192e-05
  85    2.9289506682901e-06
  86    -1.301621268635e-05
  87    0.00017822648477887
  88    5.2445888191085e-05
  89    -2.5637973422216e-05
  90    -4.264930232735e-06
  91    -3.4717089027448e-06
  92    -1.1687641536792e-05
  93    -4.3893307247328e-06
  94    2.3152374878309e-06
 Sym= A
 Ene=               4
 Spin= Alpha
 Occup=    1.00000
   1    -0.00018072961518589
   2    0.00028398961091152
   3    0.0035414181280627
   4    -0.00038939971374783
   5    -0.00028800997942573
   6    0.00089121406476985
   7    0.00019320466046887
   8    -0.00018987745981075
   9    0.0015742210236731
  10    9.1769749415275e-05
  11    -7.6583167753744e-05
  12    -6.6711246433051e-05
  13    6.2482074686171e-06
  14    2.7112034145413e-05
  15    7.718116064498e-05
  16    0.00010771814108002
  17    -0.0015231083115648
  18    0.00014419039938872
  19    -7.5219174011054e-06
  20    3.966458212967e-05
  21    0.00063729658413229
  22    -5.7706225453212e-05
  23    -0.00040607889714229
  24    9.0293169529207e-05
  25    4.701789151348e-05
  26    -3.4094399324199e-05
  27    -2.06960646622e-05
  28    1.0241551820204e-05
  29    7.8250795969314e-05
  30    9.1743531406496e-05
  31    4.459600769655e-05
  32    1.7289868935199e-05
  33    9.912048654977e-06
  34    1.2461983097231e-05
  35    3.0867657127302e-05
  36    1.9788803037439e-05
  37    -1.8051403632212e-05
  38    9.9208721778953e-06
  39    1.0295382367347e-05
  40    -2.2751726004945e-05
  41    3.1740240285742e-05
  42    1.5917011319932e-05
  43    8.2727416949087e-06
  44    4.7043130996046e-06
  45    9.9372651741245e-06
  46    -8.536786487509e-06
  47    -3.2670832025199e-06
  48    -2.2663498450916e-05
  49    -3.9220792572712e-05
  50    0.00015870935245152
  51    4.4361661649655e-06
  52    -9.593435262081e-06
  53    -8.6687292654157e-07
  54    -0.00010644995097164
  55    -2.1572597153276e-05
  56    6.9630381364756e-05
  57    1.3506221775991e-05
  58    8.9771756085803e-07
  59    -7.8397020480825e-06
  60    1.8918645758866e-06
  61    -1.1949729661843e-07
  62    9.6281611944893e-05
  63    0.00016112209808674
  64    -0.00068307161973417
  65    3.2962702178039e-07
  66    5.2608989373721e-05
  67    6.8792690016996e-06
  68    -4.41484990505e-05
  69    0.00021890743692135
  70    -0.00036072183059865
  71     3.07742900099e-06
  72    -1.6457826763103e-05
  73    2.2450666129621e-05
  74    6.5116213356339e-06
  75    1.3677930940408e-06
  76    -0.00024027899405597
  77    -6.9038971110701e-05
  78    5.4313353655257e-06
  79    3.3701225107427e-05
  80    -0.00016172888350574
  81       1.0010202280644
  82    0.00089747132031671
  83    -0.0055984253230562
  84    0.00074028600275188
  85    0.00070849102138097
  86    -0.0020438340949681
  87    -0.0002634247306589
  88    -0.00024944787349447
  89    0.00058330311918956
  90    -9.4610017087709e-05
  91    6.9667469503007e-05
  92    6.0028347829952e-05
  93    1.1744905737188e-05
  94    -1.7310946106665e-05
 Sym= A
 Ene=               5
 Spin= Alpha
 Occup=    1.00000
   1    7.7182621481516e-05
   2    0.00010773520774722
   3    -0.0015230899195418
   4    -0.00014417565086607
   5    -3.1270083506909e-05
   6    -2.5559706823788e-05
   7    -0.00063731347685792
   8    0.00021681134735026
   9    0.0003481453084032
  10    1.2659560938101e-05
  11    4.2597166968042e-05
  12    7.2737587895242e-05
  13    -6.5515422812138e-05
  14    2.2372359187231e-05
  15    -0.00018071672279435
  16    0.0002840971780848
  17    0.0035414619849066
  18    0.00038944928014236
  19    -0.0007935899495825
  20    -0.00049765698828016
  21    -0.00019320200099019
  22    -0.0011573325319619
  23    -0.0010838737938797
  24    -2.4229418905471e-05
  25    -4.1249870600144e-05
  26    9.294228853191e-05
  27    -6.0715162476591e-05
  28    -7.0009129547243e-05
  29    -0.00024027075252493
  30    -6.9057047325686e-05
  31    -5.4290165614001e-06
  32    0.0001297695500082
  33    0.00010222613494422
  34        1.001020228589
  35    0.00089695246075736
  36    -0.0055990433071092
  37    -0.00074018163049592
  38    0.0018570196431011
  39    0.0011102828042332
  40    0.0002635031371116
  41    -0.00056566821525501
  42    -0.00028648369411876
  43    1.1014830389941e-05
  44    4.2241915313005e-05
  45    -8.5323326069181e-05
  46    7.2719396333503e-05
  47    5.8039353811541e-05
  48    9.6281973661271e-05
  49    0.00016110844064869
  50    -0.00068309946863523
  51    -3.2050956418734e-07
  52    3.5907115197321e-05
  53    -3.9104801840964e-05
  54    4.4155126977085e-05
  55    0.00039958669699323
  56    0.00013560476400268
  57    1.7986373561022e-05
  58    -1.1727764860931e-05
  59    1.9327634015187e-06
  60    1.511843248527e-05
  61    -1.1626951087053e-05
  62    -2.2662487405192e-05
  63    -3.9221645835719e-05
  64    0.00015870030663042
  65    -4.4418341159149e-06
  66    -6.7875827832229e-06
  67    6.8321303233743e-06
  68    0.00010644597897348
  69    -6.1276528314559e-05
  70    -3.9469750603051e-05
  71    -2.2273969744433e-06
  72    6.1082468511721e-07
  73    1.3812092432442e-05
  74    -7.1919237355551e-06
  75    6.687501976155e-07
  76    7.8259931110797e-05
  77    9.1710356991041e-05
  78    -4.4597262267945e-05
  79    6.8743679954269e-06
  80    -1.8706063199345e-05
  81    1.2461060209621e-05
  82    3.0866683392937e-05
  83    1.9796380588487e-05
  84    1.8052086595756e-05
  85    9.8071474294401e-07
  86    -1.4263529942334e-05
  87    2.2756223193887e-05
  88    1.4082980769204e-05
  89    -3.2594353288737e-05
  90    1.4675473673488e-05
  91    1.5034469836677e-06
  92    1.1266158421073e-06
  93    -4.8400833563435e-06
  94    5.5266164329223e-06
 Sym= A
 Ene=               6
 Spin= Alpha
 Occup=    1.00000
   1    0.00090564882258081
   2     0.014141966840878
   3     0.014046814315487
   4    -0.016573332173919
   5    -0.012895807265451
   6     0.034938799975056
   7    -0.019450821382162
   8    -0.0089406678375745
   9     0.047750567928212
  10    -0.013167575896131
  11    -0.0042045249643476
  12     0.035055595903695
  13    0.0072390211894238
  14    -0.018202920866471
  15    0.0016082299733404
  16     0.013305707579578
  17     0.015287139022492
  18    -0.024120541053754
  19    0.0013075049775635
  20    -0.0052720716072007
  21    -0.017167026733246
  22    -0.001604430668497
  23    -0.010820771515626
  24    0.00039081226442351
  25    -0.0002168330102923
  26    -0.0005049894714711
  27    -0.00020575743971811
  28    -0.00092987421548288
  29    -0.0076318211732271
  30    -0.0016568240902815
  31    0.00030913616400887
  32    0.00057861261218451
  33    0.0005292869441001
  34    -0.000494240908601
  35    -0.0025415815319417
  36    -0.0021371690495041
  37    0.0057768290570615
  38    -0.0010633737051739
  39    -0.001164782743418
  40    0.0038920546293276
  41    -0.00084040440049451
  42    -0.00058966337595762
  43    -0.0002739478734864
  44    -0.00023288093024721
  45    -0.00014688536291954
  46    0.00039646831870753
  47    -0.00040770160711206
  48    0.0012662373491417
  49    0.0066902054398928
  50     0.002540408640955
  51    -0.011993669847214
  52    -0.00092806999210945
  53    0.00038825589260882
  54    -0.0042833928920483
  55    -0.0017119985036328
  56    0.0038801328838868
  57    0.00055578227482378
  58    -0.00035767866237834
  59    -0.00018764550814967
  60    -0.0011456885633222
  61    0.00078568089540036
  62    0.00027085064146376
  63    0.0022398863188843
  64    -0.00086740499113351
  65     -0.31870802876822
  66    -0.017441348039548
  67      0.58247506272893
  68     -0.22038583815933
  69    -0.0094802463664099
  70      0.40083446221372
  71    0.0032104466980596
  72    0.0036551274470317
  73    -0.012319808755261
  74    -0.0026912788886736
  75    0.0068471008222673
  76     0.023810713831808
  77     0.017358813932507
  78    -0.0006539855471314
  79    0.00073366364277755
  80    -0.00077286151292848
  81    0.0016192428158634
  82    -0.014148218074759
  83    -0.050795480985385
  84    -0.0060666115410847
  85    -0.026836869857751
  86     0.037181790384268
  87    -0.0052546658744641
  88    -0.026311477737331
  89     0.034173770405917
  90    -0.00024600873678483
  91    -0.00015840716741206
  92    0.00033903887778881
  93    -0.00043707015527261
  94    -0.00074655744854262
 Sym= A
 Ene=               7
 Spin= Alpha
 Occup=    1.00000
   1    0.00096679276683779
   2     0.033469328546371
   3      0.09081713362302
   4     0.042205442188199
   5    -0.0064269240712744
   6    -0.009946586093627
   7     0.017700765701595
   8    0.0086759914147639
   9    -0.0063547849771519
  10    0.00015413808929425
  11    -0.0013588901683984
  12    -0.0008748178057604
  13    0.0014282426233433
  14    -0.00073535910719344
  15    0.0029622477243613
  16    0.0038363932755045
  17     -0.01198806163801
  18    0.00090418593426509
  19    -0.0015926308870877
  20    -0.00088980937788392
  21     0.031390115166386
  22    -0.016821474030711
  23     0.010022839390608
  24    -0.023135474444156
  25    -0.010436562220567
  26    -0.016994358442313
  27     0.012028973388931
  28    -0.026255923043318
  29    -0.050693329619873
  30    -0.046925646685062
  31    -0.0018206657687789
  32    0.0028865246709889
  33    0.00074841459229555
  34    0.0014594390418536
  35    -0.0073853715808617
  36    -0.019893897812817
  37      0.54981799943105
  38    -0.013345366954203
  39      0.38114586283828
  40      0.38231106256876
  41    -0.010970619722311
  42      0.26292814080399
  43    0.0068978129254152
  44    0.0027082536191453
  45    0.0061717756333503
  46    -0.0038398856166557
  47    0.0094137017221884
  48    -0.0007088163535076
  49    -0.00030040456695947
  50    0.0087505653258537
  51    -0.003791395612797
  52    -0.0011708620683697
  53    -0.0015647691312557
  54    -0.0056130893626762
  55    -0.0012511117125972
  56    0.00044776068435753
  57    -0.00057429459131862
  58    -0.00024055065534936
  59    -0.00031708055512772
  60    0.00027554219843422
  61    -0.00030825274579216
  62    0.00066513935368425
  63    -0.0030850119206538
  64    -0.018489687421034
  65    -0.0081982743235666
  66    0.0091954550588401
  67    5.4197385273762e-05
  68    -0.0056658927613289
  69     0.011812748818643
  70    -0.0016173708294345
  71    -0.00017265339536441
  72    1.7995135019857e-05
  73    0.0002870156852355
  74    0.00063799801330252
  75    -0.00064626184724354
  76     0.011212766829669
  77    -0.030106522160474
  78    -0.0037778498616296
  79    0.0014432819619496
  80    0.0017300683860264
  81    0.00045335350235425
  82    -0.0014491320779195
  83    -0.0095928541655148
  84    -0.003662933157487
  85    -0.0012679200191045
  86    0.0063503282243608
  87    -0.0046133378936194
  88    -0.0047807694886547
  89    0.0079961377186049
  90    -0.00016354143987113
  91    -0.00051486716251902
  92    0.00032891593364581
  93    0.00025876460556331
  94    0.00012002956070064
 Sym= A
 Ene=               8
 Spin= Alpha
 Occup=    1.00000
   1    -0.0029624070827395
   2    -0.0038374099121885
   3      0.01198826716363
   4    0.00090448529467418
   5    0.00064960380912958
   6    -0.0017073265347086
   7     0.031389727960823
   8     0.019329957464804
   9    -0.0031346652358405
  10     0.027595299706129
  11     0.024871418647945
  12     0.010858223211706
  13    -0.0094536617560189
  14    -0.013404760351305
  15    -0.00096671131848588
  16    -0.033468796209401
  17    -0.090816789625357
  18     0.042204796960368
  19    -0.0014701937448228
  20    -0.011750701838764
  21     0.017700380237246
  22    -0.010730870482089
  23    0.00070823450177945
  24    0.0011985561479929
  25    0.0015137367969368
  26    -0.00098660722822375
  27    -0.00064723422179142
  28    0.0003101321306941
  29    -0.011212504111062
  30     0.030106952171567
  31    -0.0037778567006008
  32    6.4721254069539e-06
  33    0.0022529913950666