[Molden Format]
made by pyscf v[2.0.1]
[Atoms] (AU)
C   1   6     0.00000000000000     0.00000000000000     0.00000000000000
C   2   6     2.85272299873892     0.00000000000000     0.00000000000000
H   3   1     3.62066923017674     0.00000000000000     1.90331545357504
F   4   9     3.65943188126013    -2.07008020110292    -1.19516136135088
F   5   9     3.65943188126013     2.07008020110292    -1.19516136135088
F   6   9    -0.80670888252121    -0.81753852021306     2.24616862381973
H   7   1    -0.78003726726708     1.90391156266994    -0.33571097738153
F   8   9    -0.80670888252121    -1.53646982930489    -1.83109343898672
[GTO]
1 0
 s    8 1.00
                  6665  0.00069158396281299
                  1000  0.0053257961529341
                   228   0.027060721042034
                 64.71    0.10165684614077
                 21.06     0.2745748236174
                 7.495    0.44829431892377
                 2.797    0.28490261071525
                0.5215   0.015194859206082
 s    8 1.00
                  6665  -0.00029326965268655
                  1000  -0.0023180354739745
                   228  -0.011499786038565
                 64.71  -0.046826727009787
                 21.06   -0.12846616875047
                 7.495   -0.30126627246289
                 2.797   -0.25563070233011
                0.5215      1.093793361012
 s    1 1.00
                0.1596                   1
 p    3 1.00
                 9.439   0.056979251590039
                 2.002    0.31320721150073
                0.5456    0.76037674173753
 p    1 1.00
                0.1517                   1
 d    1 1.00
                  0.55                   1

2 0
 s    8 1.00
                  6665  0.00069158396281299
                  1000  0.0053257961529341
                   228   0.027060721042034
                 64.71    0.10165684614077
                 21.06     0.2745748236174
                 7.495    0.44829431892377
                 2.797    0.28490261071525
                0.5215   0.015194859206082
 s    8 1.00
                  6665  -0.00029326965268655
                  1000  -0.0023180354739745
                   228  -0.011499786038565
                 64.71  -0.046826727009787
                 21.06   -0.12846616875047
                 7.495   -0.30126627246289
                 2.797   -0.25563070233011
                0.5215      1.093793361012
 s    1 1.00
                0.1596                   1
 p    3 1.00
                 9.439   0.056979251590039
                 2.002    0.31320721150073
                0.5456    0.76037674173753
 p    1 1.00
                0.1517                   1
 d    1 1.00
                  0.55                   1

3 0
 s    3 1.00
                 13.01   0.033498726389998
                 1.962    0.23480080117413
                0.4446     0.8136829578829
 s    1 1.00
                 0.122                   1
 p    1 1.00
                 0.727                   1

4 0
 s    8 1.00
                 14710  0.00072067370873197
                  2207  0.0055504869689163
                 502.8   0.028254207662589
                 142.6    0.10639582836653
                 46.47    0.28668420124307
                  16.7    0.44843796582416
                 6.356    0.26464118141135
                 1.316   0.015326060993048
 s    8 1.00
                 14710  -0.00032119389049893
                  2207  -0.0025461915683188
                 502.8  -0.012643359507821
                 142.6   -0.05195749170489
                 46.47   -0.14344713812646
                  16.7   -0.33243762329603
                 6.356   -0.21865906750347
                 1.316     1.0955904138622
 s    1 1.00
                0.3897                   1
 p    3 1.00
                 22.67   0.064834021493887
                 4.977    0.34053535983101
                 1.347    0.73464640679382
 p    1 1.00
                0.3471                   1
 d    1 1.00
                  1.64                   1

5 0
 s    8 1.00
                 14710  0.00072067370873197
                  2207  0.0055504869689163
                 502.8   0.028254207662589
                 142.6    0.10639582836653
                 46.47    0.28668420124307
                  16.7    0.44843796582416
                 6.356    0.26464118141135
                 1.316   0.015326060993048
 s    8 1.00
                 14710  -0.00032119389049893
                  2207  -0.0025461915683188
                 502.8  -0.012643359507821
                 142.6   -0.05195749170489
                 46.47   -0.14344713812646
                  16.7   -0.33243762329603
                 6.356   -0.21865906750347
                 1.316     1.0955904138622
 s    1 1.00
                0.3897                   1
 p    3 1.00
                 22.67   0.064834021493887
                 4.977    0.34053535983101
                 1.347    0.73464640679382
 p    1 1.00
                0.3471                   1
 d    1 1.00
                  1.64                   1

6 0
 s    8 1.00
                 14710  0.00072067370873197
                  2207  0.0055504869689163
                 502.8   0.028254207662589
                 142.6    0.10639582836653
                 46.47    0.28668420124307
                  16.7    0.44843796582416
                 6.356    0.26464118141135
                 1.316   0.015326060993048
 s    8 1.00
                 14710  -0.00032119389049893
                  2207  -0.0025461915683188
                 502.8  -0.012643359507821
                 142.6   -0.05195749170489
                 46.47   -0.14344713812646
                  16.7   -0.33243762329603
                 6.356   -0.21865906750347
                 1.316     1.0955904138622
 s    1 1.00
                0.3897                   1
 p    3 1.00
                 22.67   0.064834021493887
                 4.977    0.34053535983101
                 1.347    0.73464640679382
 p    1 1.00
                0.3471                   1
 d    1 1.00
                  1.64                   1

7 0
 s    3 1.00
                 13.01   0.033498726389998
                 1.962    0.23480080117413
                0.4446     0.8136829578829
 s    1 1.00
                 0.122                   1
 p    1 1.00
                 0.727                   1

8 0
 s    8 1.00
                 14710  0.00072067370873197
                  2207  0.0055504869689163
                 502.8   0.028254207662589
                 142.6    0.10639582836653
                 46.47    0.28668420124307
                  16.7    0.44843796582416
                 6.356    0.26464118141135
                 1.316   0.015326060993048
 s    8 1.00
                 14710  -0.00032119389049893
                  2207  -0.0025461915683188
                 502.8  -0.012643359507821
                 142.6   -0.05195749170489
                 46.47   -0.14344713812646
                  16.7   -0.33243762329603
                 6.356   -0.21865906750347
                 1.316     1.0955904138622
 s    1 1.00
                0.3897                   1
 p    3 1.00
                 22.67   0.064834021493887
                 4.977    0.34053535983101
                 1.347    0.73464640679382
 p    1 1.00
                0.3471                   1
 d    1 1.00
                  1.64                   1

[5d]
[7f]
[9g]

[MO]
 Sym= A
 Ene=               0
 Spin= Alpha
 Occup=    1.00000
   1    -0.00023149133489929
   2    3.2564073924517e-05
   3      0.00330342001255
   4    0.00047787758406844
   5    3.1065493797298e-06
   6    1.8404262485185e-05
   7    0.0016022666255121
   8    -0.00032220607600237
   9    0.00018388729834679
  10    -5.7471294672635e-06
  11    0.00011677596570079
  12    1.5186241518063e-05
  13    9.2455501891641e-05
  14    1.7916450569727e-05
  15       1.0019125653932
  16    0.0042277339125197
  17    -0.0074773906834272
  18    0.00058335220222706
  19    4.6019049559062e-05
  20    -0.0011021716558233
  21    0.0015826479971006
  22    0.00011247653776249
  23    -0.00064121904877059
  24    -0.00011939961717001
  25    -0.00010812327273436
  26    -5.3219875417379e-06
  27    -0.0003549904879479
  28    -5.0535328792154e-06
  29    0.00097017155569219
  30    0.0015384327420496
  31    -0.00023313476943514
  32    -1.0165301323203e-05
  33    -7.7162807337365e-05
  34    0.00014505246845938
  35    0.00065343737376752
  36    -6.8616479718463e-05
  37    -8.0916446631258e-05
  38    0.00031095689552282
  39    0.00013446319731108
  40    0.00016283364959327
  41    -0.00076077719447057
  42    -0.00038892557258711
  43    4.3897895250125e-05
  44    3.0578798510866e-05
  45    -0.00011101196282338
  46    8.2461933016736e-05
  47    7.0676186991207e-05
  48    0.00015933845133484
  49    0.00068263127985402
  50    -0.00017379537591163
  51    -7.1704191571578e-05
  52    -0.00030598707402912
  53    0.00013723372295565
  54    0.00014609033775496
  55    0.00077223664137518
  56    -0.00042775276924281
  57    4.1629203903381e-05
  58    3.2288311982489e-05
  59    0.00011656443979261
  60    8.6528910133874e-05
  61    -7.3721529551716e-05
  62    1.0311836033487e-05
  63    2.4582775488957e-05
  64    -0.00025578304642791
  65    -2.81714480185e-06
  66    -7.4051730678392e-06
  67    1.5402074268719e-06
  68    9.4993760150079e-06
  69    -7.4949739610469e-06
  70    3.2226823491086e-05
  71    -2.3499566838967e-06
  72    -1.0573159976276e-05
  73    -1.2212547629559e-05
  74    2.5091323856271e-05
  75    2.3466797218931e-06
  76    -2.9787002754662e-05
  77    0.00038250425605767
  78    9.4471575845973e-05
  79    -5.1972938631151e-05
  80    9.2691995052591e-06
  81    -4.936151063598e-06
  82    5.0510927278747e-06
  83    -0.00016041798263814
  84    2.6686925930336e-05
  85    1.172626483354e-06
  86    1.5190634912449e-05
  87    7.4435572244457e-05
  88    -2.4610784885039e-05
  89    -0.00010196212445585
  90    -1.8048121975057e-05
  91    1.361945549201e-05
  92    2.8548453481921e-07
  93    3.2791917118169e-05
  94    1.1176460607653e-05
 Sym= A
 Ene=               1
 Spin= Alpha
 Occup=    1.00000
   1       1.0018995490958
   2    0.0041857276197778
   3    -0.007353089180093
   4    -0.00059154641951087
   5    -0.0010732379122978
   6    0.00023728943744087
   7    -0.0015940072012012
   8    -0.00056645118084146
   9    0.00021620376035922
  10    0.0003564877825136
  11    -1.3799504264804e-05
  12    9.052685244692e-05
  13    -8.6983296268166e-05
  14     0.000112755122616
  15    -0.0002324340770182
  16    3.0170830337211e-05
  17    0.0032748756246552
  18    -0.00047877384517473
  19    1.8259846578879e-05
  20    -3.5363578813521e-06
  21    -0.0016017059362332
  22    0.00011769303189101
  23    -0.00035709703616548
  24    -8.5337640394308e-05
  25    2.5805578999878e-06
  26    -6.923377544767e-07
  27    5.4238757270489e-05
  28    -0.00011518076665341
  29    -2.0708864357521e-05
  30    0.00039562858031002
  31    -9.9036100032153e-05
  32    9.9538429632193e-07
  33    -5.6712785253698e-05
  34    -5.0795539743203e-06
  35    4.8613356155709e-06
  36    -0.00015855831398894
  37    -2.6800290256662e-05
  38    1.5534881305254e-05
  39    -1.3304272486381e-06
  40    -7.5881670304115e-05
  41    -0.00010324268712536
  42    -5.0886914591077e-06
  43    -1.9525188011712e-05
  44    -8.8123157551482e-06
  45    2.0271136070746e-07
  46    3.1555059900704e-05
  47    -1.5571795948627e-05
  48    9.8961717179266e-06
  49    2.3543698440448e-05
  50    -0.00025185455581208
  51    3.3482877330204e-06
  52    -2.2142241184694e-07
  53    -7.9349861150111e-06
  54    -8.604198179799e-06
  55    3.1775442269917e-05
  56    -1.1522087863847e-05
  57    -1.6244151547101e-05
  58    -4.2759526098622e-06
  59    -1.4791162053165e-05
  60    1.6865288683464e-05
  61    1.0115030614575e-05
  62    0.00016026905493201
  63    0.00068361214506794
  64    -0.00018521453267864
  65    7.2336106514328e-05
  66    8.1880751144545e-05
  67    -0.00032572977542272
  68    -0.00014611489233979
  69    -0.00029314895655623
  70    0.00083777311420101
  71    -0.00012588823810895
  72    7.7766552820873e-05
  73    8.2102559587414e-05
  74    -1.0334757497259e-05
  75    -1.9300804422213e-05
  76    0.00093598375106164
  77    0.0014694834158797
  78    0.00021828875333411
  79    -5.7326983935601e-05
  80    -1.6620689778856e-07
  81    0.00014570535499107
  82    0.00065384315547505
  83    -7.8211656270894e-05
  84    8.1649638448778e-05
  85    0.00018644305014361
  86    0.00028357570654488
  87    -0.00016297408389156
  88    -0.00052121357899122
  89    -0.00068236799534746
  90    -5.6284736147356e-05
  91    -6.3642756485246e-05
  92    -0.00013101108808146
  93    2.4461262503771e-05
  94    -4.241634127938e-05
 Sym= A
 Ene=               2
 Spin= Alpha
 Occup=    1.00000
   1    -0.00018257436179341
   2    0.00027904414753686
   3    0.0035426272702168
   4    -0.00038551473370856
   5    -0.00033590440065805
   6    0.00087156838762018
   7    0.00014817934723473
   8    -0.00079593492353728
   9    0.0013498912022693
  10    0.00010541362534487
  11    -7.1139319874082e-05
  12    -5.6987635465544e-05
  13    1.6033085436811e-05
  14    4.5924016770224e-05
  15    7.5915286549889e-05
  16    0.00010459514195369
  17    -0.0014925144673697
  18    0.00014150061419837
  19    -1.5847894534302e-05
  20    3.4734191407213e-05
  21    0.00061576996041371
  22    0.00017137676204592
  23    -0.00029387617980543
  24    9.4292691105049e-05
  25    4.0762335603998e-05
  26    -3.0048494819193e-05
  27    -1.4506299959669e-05
  28    -8.7633188027425e-06
  29    5.8646573964788e-05
  30    7.6872550616199e-05
  31    4.0115023511333e-05
  32    -6.5377871882481e-06
  33    7.5005998963307e-06
  34    3.3355450981697e-06
  35    1.1784681768037e-05
  36    0.00010094535282828
  37    -2.6521514464336e-05
  38    6.534201114142e-06
  39    7.7464375364583e-06
  40    2.638358989548e-05
  41    4.3495997442017e-05
  42    2.7126068386546e-05
  43    1.1691154893636e-05
  44    5.3710870889906e-06
  45    7.5585200860629e-06
  46    -1.0559531691025e-05
  47    -3.33413616896e-06
  48    -2.3869446008588e-05
  49    -4.0131727696613e-05
  50    0.00014678975796149
  51     1.05587111376e-05
  52    -9.435402082618e-06
  53    9.6375481462238e-06
  54    -0.00014748384001429
  55    -3.3931860907037e-05
  56    3.4045209498104e-05
  57    7.7100295954067e-06
  58    -8.9368283232149e-07
  59    -9.3333731525849e-06
  60    2.2440534862148e-06
  61    2.7131962973009e-07
  62       1.0010227186585
  63    0.00091419922413214
  64    -0.0055959734812395
  65    0.00073795085635298
  66    0.00078681419659064
  67    -0.0020079979901168
  68    -0.00025812792969176
  69    -0.00012455361087707
  70    0.00064596422587293
  71    -9.92370317071e-05
  72    6.5468716016422e-05
  73    5.6586912848554e-05
  74    1.0384519365535e-05
  75    -2.8080182949272e-05
  76    -0.00023049319874487
  77    -0.00011651168821381
  78    8.0600499122717e-06
  79    7.2698881068419e-05
  80    -0.00014254081806807
  81    9.4821663100746e-05
  82    0.00015938278339939
  83    -0.00065714960583246
  84    -5.945264335021e-06
  85    -4.4921488451716e-05
  86    -1.9282891659993e-05
  87    -1.671498478192e-05
  88    7.2572022701901e-05
  89    -0.00044102262739547
  90    -2.607846549758e-05
  91    -1.1806204092844e-05
  92    -1.168163756817e-05
  93    -4.5908394793454e-06
  94    1.0300837489441e-05
 Sym= A
 Ene=               3
 Spin= Alpha
 Occup=    1.00000
   1    7.5261355352907e-05
   2    0.00010397846768033
   3    -0.0014877048706172
   4    -0.00014121914385936
   5    3.1312532303961e-05
   6    -2.1681980013796e-05
   7    -0.00061744239845839
   8    -0.0002566706766045
   9    0.00021944694460758
  10    -2.1807782627141e-05
  11    1.576731927096e-05
  12    -5.3825248826226e-05
  13    -8.1149039624378e-05
  14    -3.9116162099297e-05
  15    -0.00018103122585421
  16    0.00028303768016561
  17    0.0035471528762119
  18    0.0003874261310229
  19    0.00080388983848766
  20    -0.00048284951385347
  21    -0.00014745918846345
  22    0.0011894342364838
  23    -0.0010157113612841
  24    -4.4579836462407e-05
  25    -5.6625506978495e-05
  26    -8.5187941547866e-05
  27    -7.0110337549941e-05
  28    6.2787758267648e-05
  29    -0.00023631695793026
  30    -0.00011960935325733
  31    -8.6748518759186e-06
  32    -0.00012718429361219
  33    9.358098879168e-05
  34    9.5007633765324e-05
  35    0.00015969463278126
  36    -0.00065839310652132
  37    5.8299266210264e-06
  38    -2.722426699256e-05
  39    -4.0451570285041e-05
  40    1.6807848411572e-05
  41    -0.00042240224413248
  42    0.00014769728821358
  43    1.925566658816e-05
  44    -1.2166172158022e-05
  45    -2.5124992896924e-06
  46    2.1553781591024e-05
  47    9.9964311993605e-06
  48       1.0010224476652
  49    0.00090051457857949
  50    -0.0056095637519241
  51    -0.00073354780068976
  52    -0.0018489174732743
  53    0.0011350057005268
  54    0.00026021073669851
  55    0.00060836374722183
  56    -0.0002270901544461
  57    1.9727423594928e-05
  58    3.9071844716411e-05
  59    8.0390835202175e-05
  60    7.8777642564472e-05
  61    -5.9531841830598e-05
  62    -2.3827956877614e-05
  63    -4.0039197224611e-05
  64    0.00014654802099818
  65    -1.0394449072093e-05
  66    7.8271033677621e-06
  67    -1.0954302707361e-05
  68    0.00014757190714485
  69    2.719916288314e-05
  70    -3.9166259463973e-05
  71    -2.5844784859465e-06
  72    -4.3608405664198e-07
  73    -1.1398514462649e-05
  74    -3.7601741727037e-06
  75    8.3721568233041e-07
  76    5.9157490885699e-05
  77    7.2285243863863e-05
  78    -3.8695169874281e-05
  79    5.1992185908235e-06
  80    -7.7172027167158e-06
  81    3.2593945442737e-06
  82    1.1613093513643e-05
  83    0.00010129387739215
  84    2.6428300181243e-05
  85    8.7235669915516e-06
  86    5.0893710772803e-06
  87    -2.6110609282455e-05
  88    3.3894218195423e-05
  89    3.8161550809153e-05
  90    1.3712708493727e-06
  91    4.2655568744228e-06
  92    5.4402236952062e-06
  93    -1.6532528276199e-05
  94    -4.66614582928e-06
 Sym= A
 Ene=               4
 Spin= Alpha
 Occup=    1.00000
   1    -0.00018234022175007
   2    0.00029346485594435
   3    0.0035181425374775
   4    -0.00040376014082028
   5    -0.00063675629761774
   6    -0.00071966636173136
   7    0.00014158574502554
   8    -0.0011987463671358
   9    -0.0010550742459374
  10    4.484043727853e-05
  11    5.6560517866049e-05
  12    0.00010350029054645
  13    -1.4449634609435e-05
  14    5.3829091242348e-05
  15    5.4891597260707e-05
  16    6.3620215006587e-05
  17    -0.0014151380911473
  18    0.00013460490935063
  19    8.0504743645957e-06
  20    3.0001217409171e-07
  21    0.00057069165328021
  22    0.00036826626366356
  23    0.00032748000732323
  24    3.6552061019792e-05
  25    -8.0827895327048e-06
  26    5.7346497345569e-05
  27    -3.4001124367568e-05
  28    -3.2387036203752e-05
  29    5.4178014783095e-05
  30    1.0865566758584e-06
  31    -2.8722084581052e-05
  32    -5.4809466938117e-05
  33    -1.5154537454531e-05
  34    -4.5808471383593e-05
  35    -9.3542999202067e-05
  36    0.00029880756150629
  37    1.3254162860328e-05
  38    -3.4115339029692e-05
  39    -1.0614453496844e-06
  40    9.567540344687e-06
  41    9.1862661325842e-05
  42    2.4178975353189e-06
  43    1.4271465022528e-05
  44    2.3798459969336e-06
  45    -4.5105599261362e-06
  46    -1.039142168317e-05
  47    3.078705397592e-06
  48    3.9028639717522e-06
  49    1.4033855558946e-05
  50    7.5052922957816e-05
  51    -2.2141116193294e-05
  52    -9.5733519815355e-06
  53    9.3053610637151e-06
  54    -7.8425427437638e-06
  55    -5.1504228531262e-05
  56    -1.0385978784397e-05
  57    -3.040635942556e-06
  58    -5.234620956194e-06
  59    -9.2184013388573e-07
  60    -1.5626446611936e-05
  61    -2.6254938431678e-06
  62    9.199247274349e-05
  63    0.00015321100913776
  64    -0.00063082787446215
  65    -1.8325467547756e-06
  66    -3.2843640747987e-05
  67    3.7525723813043e-05
  68    -2.9530027453675e-05
  69    0.00021498767574088
  70    0.00038154345193402
  71    -2.5632086105352e-05
  72    8.0933069915797e-06
  73    -7.0953577948085e-06
  74    -6.5831279933247e-06
  75    1.3104292962449e-05
  76    -0.00025571693696698
  77    -0.00011782264176861
  78    3.0990710198978e-06
  79    0.00011928400830233
  80    0.00011288618354165
  81       1.0010178466787
  82    0.00079745591564203
  83    -0.0057090029672132
  84    0.00070082294557918
  85    0.0015010712638519
  86    0.0016872305770001
  87    -0.00025309064340837
  88    -0.00032033725642713
  89    -0.00053192511039824
  90    -4.9411138014958e-05
  91    -5.3165811630719e-05
  92    -9.4000213062538e-05
  93    3.917579573045e-05
  94    -5.2320496721369e-05
 Sym= A
 Ene=               5
 Spin= Alpha
 Occup=    1.00000
   1    5.5599354487506e-05
   2    6.5210988937227e-05
   3    -0.0014154506304012
   4    -0.00013373576562204
   5    2.0185868308292e-06
   6    7.2286653226238e-06
   7    -0.00057127270631717
   8    0.00038589881445915
   9    0.00030485632834363
  10    -4.7594716617581e-06
  11    3.1106084904666e-05
  12    4.7643194581548e-05
  13    -5.8315720221419e-05
  14    1.3221778766959e-05
  15    -0.00018099327847357
  16    0.00029517393863136
  17     0.003522661502306
  18    0.0004041039098256
  19    -0.00082004370686083
  20    -0.00050077625712097
  21    -0.00014132624709861
  22    -0.0012458062936283
  23    -0.00099442062801705
  24    -3.8994255023083e-05
  25    -4.2082533402107e-05
  26    8.383869919712e-05
  27    -6.2224422182343e-05
  28    -6.5955246525758e-05
  29    -0.00026208143144811
  30    -0.00012059482453776
  31    -3.8601050028286e-06
  32    0.00013151899833835
  33    9.4988612418222e-05
  34       1.0010176001632
  35    0.00079743207406654
  36    -0.005706654155022
  37    -0.00069187689402286
  38     0.001920559028898
  39    0.0011932827744787
  40    0.00025893233797606
  41    -0.00057945550565261
  42    -0.00021764753796563
  43    1.7595116744904e-05
  44    4.2437337369618e-05
  45    -8.0176329597131e-05
  46    7.7603735712862e-05
  47    6.1540275252567e-05
  48    9.2168117502869e-05
  49    0.00015366862472392
  50    -0.00063173753373079
  51    1.8458372674134e-06
  52    3.0886635227518e-05
  53    -3.8657850985326e-05
  54    2.9998241941267e-05
  55    0.00041305261613027
  56    0.00014493254428639
  57    1.9392826550006e-05
  58    -1.1468736590414e-05
  59    2.0646038823324e-06
  60    1.9362976532537e-05
  61    -1.0419563151187e-05
  62    3.9241797348229e-06
  63    1.4065323673839e-05
  64    7.5024636367353e-05
  65    2.1967454115214e-05
  66    7.5618477561286e-06
  67    -1.1093516508057e-05
  68    7.602470121538e-06
  69    -1.894197624458e-05
  70    -4.8655651584007e-05
  71    1.4739937561469e-05
  72    1.7881602951558e-06
  73    2.6423584407549e-06
  74    -5.4417850104692e-06
  75    5.6111162568303e-06
  76    5.2194262873005e-05
  77     1.37527050954e-06
  78    2.9366032837998e-05
  79    -2.3910434876033e-05
  80    -5.0105783608976e-05
  81    -4.5755322528332e-05
  82    -9.335318992308e-05
  83    0.00029861681438566
  84    -1.3183228323057e-05
  85    -6.956592880882e-06
  86    -3.3414317620077e-05
  87    -9.0100015615059e-06
  88    1.8276053632003e-05
  89    9.0215160500954e-05
  90    3.656296284706e-06
  91    -2.5095064239888e-06
  92    -6.6852430352962e-06
  93    -1.6467166833593e-05
  94    -2.8103863857046e-06
 Sym= A
 Ene=               6
 Spin= Alpha
 Occup=    1.00000
   1    -0.0029696251907819
   2    -0.00051691049430583
   3     0.038708523722676
   4    0.0024726201807072
   5    -0.0037878719270841
   6    -0.0011138901441987
   7     0.045375865868471
   8    -0.0039829732908269
   9     0.019799549691798
  10    -0.0064470919261892
  11     -0.02489113555733
  12     0.012037106318065
  13    -0.028585613479396
  14    -0.014613349870624
  15    -0.00082290907382846
  16    -0.025483009471951
  17    -0.081346272438637
  18     0.048486798482106
  19     0.004474148995448
  20    0.0051913248963144
  21     0.052823930780777
  22    -0.005235979583816
  23    -0.013783191627799
  24    0.00085956720796066
  25    -0.0012019528896457
  26    0.00072779905675326
  27    -0.00058382803915836
  28    -0.0024431264351952
  29     0.012975669388795
  30     0.015299318247922
  31    0.0023873320492086
  32    0.00078242374829764
  33    -0.00089613266301268
  34    -0.0011997948808108
  35    -0.0072397991042035
  36    -0.0049971737436904
  37     0.012292076789905
  38    0.00024248669383835
  39    0.0016096026750844
  40    -0.00074531580205047
  41    -0.0036269964135082
  42    0.00055284434279999
  43    -0.00046498857461068
  44      0.00104469912535
  45    -0.00022914474328251
  46    0.0015699823857628
  47    0.00096141279285325
  48    -4.9212633899183e-05
  49    0.00079233578221741
  50    0.0023709351287323
  51    -0.0041653289399783
  52    -0.0027016577675716
  53    0.00098667922367727
  54    -0.0088869953901876
  55    -0.0016538208601269
  56    0.0035873809584943
  57    0.00024776736752421
  58    0.00026935862376495
  59    -0.00029376042006585
  60    -0.00020231877122259
  61    -0.00058092014567732
  62    0.00083004142130947
  63    0.00020911557314339
  64    -0.010653075761843
  65    -0.0032883591427614
  66    0.0014724109483633
  67    0.0019154889416541
  68    -0.0067248999660679
  69    -0.0014858740546173
  70    0.0019302055199719
  71    -5.079522838836e-05
  72    -0.00026175358112008
  73    0.00020120645595165
  74    -0.00064618317887039
  75    -0.00028720423636964
  76     0.050894898532544
  77     0.047917022849289
  78    -0.0017408977244024
  79    -0.0011472051998367
  80    -0.0026610946533265
  81    -0.00094209764157599
  82    -0.0087670395423428
  83    -5.832299204455e-05
  84      0.54513461683644
  85     -0.37969090784666
  86     0.091205459522039
  87      0.37657299443064
  88     -0.26059763403108
  89     0.065288080879869
  90    0.0023719933398529
  91     0.009269659676713
  92    -0.0045299924108808
  93    0.0085067610944149
  94    0.0045242291134272
 Sym= A
 Ene=               7
 Spin= Alpha
 Occup=    1.00000
   1    -0.0030240827292204
   2    -0.0040857448696273
   3     0.015801277698162
   4    0.00091905411286703
   5    8.9553587652552e-05
   6    -0.00049602629699228
   7     0.034570416686392
   8    -0.0091125336670724
   9    -0.014065163784902
  10    0.0052720901321409
  11     0.027774885544587
  12    -0.020586025346586
  13    -0.022080665949585
  14    -0.0051794478153669
  15    -0.0021068377820129
  16    -0.034702504247428
  17     -0.08048764250523
  18     0.043247947274995
  19    0.00057949890158469
  20    -0.0078465273564684
  21     0.024866370285303
  22     -0.01410065117322
  23     0.010673840351148
  24    0.0010052946901835
  25    0.00055110059213934
  26    -0.0011610516259712
  27    -0.0015590013354285
  28    -0.0013568228161031
  29     -0.01205196725773
  30     0.015986481605621
  31    -0.0023583955939304
  32    -0.0004471128980405
  33    0.0021113192528571
  34    0.00032514780144578
  35    0.0027074903489724
  36    0.0054911714010408
  37    -0.0045630866377577
  38    0.0052802512515397
  39    0.00026352766877094
  40    -0.0041206380180326
  41    0.0072843271215904
  42    -0.00098470914657287
  43    1.8034670489038e-05
  44    0.00025028065146509
  45    -0.00012624982279205
  46    -0.00050190060102906
  47    0.00065362389558893
  48    -0.0015457185205863
  49    0.00089750954320596
  50     0.021133219829937
  51    -0.0057561632119021
  52    -0.0084019556494278
  53    0.0054397218081679
  54    -0.0070021824631887
  55    -0.011569308240853
  56    0.0059229781862365
  57    -5.7776988362343e-05
  58    0.00025198696932248
  59    -0.00018172119692779
  60    -0.00047989116088826
  61    -0.00052643869323689
  62    -0.0013897002049931
  63    0.00099961403387564
  64     0.012656171687756
  65      0.55429730127497
  66     -0.36928564072817
  67     0.065146470330981
  68      0.38498755707012
  69     -0.25577518055045
  70      0.04282109434795
  71    -0.002321726742855
  72    -0.0098555430228531
  73    0.0071614965984409
  74    0.0065386754938055
  75    0.00090302172830959
  76     0.051646953075302
  77     0.049614373687732
  78    -0.0013253068097809
  79    -0.00073104544468854
  80    0.0027577201343972
  81    0.00070977720540753
  82    0.00063123689712226
  83    -0.0078651797513403
  84    -0.0032198020417858
  85    0.0014577527636523
  86    -0.0007304916234356
  87    -0.0061909580641121
  88    -0.00091301295133236
  89    -0.00014374704291784
  90    5.5899503052829e-05
  91    0.00034350349918845
  92    -0.00037688246679707
  93    -0.00054697608345833
  94    -0.0002288949294867
 Sym= A
 Ene=               8
 Spin= Alpha
 Occup=    1.00000
   1    0.00081806149790574
   2     0.025596640802291
   3     0.081489558838125
   4      0.04839739227847
   5    -0.0056692454041584
   6    -0.0035281436934191
   7     0.053011319394932
   8      0.01453266517197
   9    0.0027982186762029
  10    0.00013402764659996
  11    -0.002166231711152
  12    -0.00053318259378076
  13    0.0011217704790649
  14    -0.0015632566232959
  15    0.0028676816155346
  16    -0.00042583111920867
  17    -0.038566063904708
  18    0.0019647430393418
  19    0.0019285858208297
  20    0.0030632478657961
  21      0.04565844603137
  22    -0.019216391945783
  23    0.0075551056317322
  24    -0.023516219873249
  25    -0.0099136529647887
  26    -0.018335119003211
  27     0.011259548296424
  28    -0.027057906882111
  29    -0.050944671149843
  30    -0.047549344290385
  31    -0.001879352041893
  32    0.0031055401054135