#INFO: **** input file is /home/fer/pyPPE/4c_ssc/test_dhf_scf.py ****
from pyscf import gto, scf



mol = gto.Mole()
mol.atom = '''
H  0  0  0; I  0  0  2 
'''
mol.unit = 'Angstrom'
mol.basis = {'H':'ccpvdz', 'I':'dyall_dz'}
#mol.output = 'HI_scf.txt'
mol.verbose = 10
mol.build()
mf = scf.DHF(mol)
mf.scf()

#INFO: ******************** input file end ********************


System: uname_result(system='Linux', node='fer', release='5.15.0-52-generic', version='#58-Ubuntu SMP Thu Oct 13 08:03:55 UTC 2022', machine='x86_64')  Threads 12
Python 3.10.6 (main, Aug 10 2022, 11:40:04) [GCC 11.3.0]
numpy 1.22.3  scipy 1.8.0
Date: Fri Oct 28 15:06:16 2022
PySCF version 2.1.0
PySCF path  /home/fer/.local/lib/python3.10/site-packages/pyscf

[CONFIG] DEBUG = False
[CONFIG] MAX_MEMORY = 4000
[CONFIG] TMPDIR = .
[CONFIG] UNIT = angstrom
[CONFIG] VERBOSE = 3
[CONFIG] conf_file = None
[INPUT] verbose = 10
[INPUT] max_memory = 7000.0 
[INPUT] num. atoms = 2
[INPUT] num. electrons = 54
[INPUT] charge = 0
[INPUT] spin (= nelec alpha-beta = 2S) = 0
[INPUT] symmetry False subgroup None
[INPUT] Mole.unit = Angstrom
[INPUT] Symbol           X                Y                Z      unit          X                Y                Z       unit  Magmom
[INPUT]  1 H      0.000000000000   0.000000000000   0.000000000000 AA    0.000000000000   0.000000000000   0.000000000000 Bohr   0.0
[INPUT]  2 I      0.000000000000   0.000000000000   2.000000000000 AA    0.000000000000   0.000000000000   3.779452249130 Bohr   0.0
[INPUT] ---------------- BASIS SET ---------------- 
[INPUT] l, kappa, [nprim/nctr], expnt,             c_1 c_2 ...
[INPUT] H
[INPUT] 0    0    [3    /1   ]  13.01             0.019685
                                1.962             0.137977
                                0.4446            0.478148
[INPUT] 0    0    [1    /1   ]  0.122                1
[INPUT] 1    0    [1    /1   ]  0.727                1
[INPUT] I
[INPUT] 0    0    [1    /1   ]  47671657             1
[INPUT] 0    0    [1    /1   ]  8857802.1            1
[INPUT] 0    0    [1    /1   ]  2132717.2            1
[INPUT] 0    0    [1    /1   ]  591444.79            1
[INPUT] 0    0    [1    /1   ]  183355.35            1
[INPUT] 0    0    [1    /1   ]  62114.698            1
[INPUT] 0    0    [1    /1   ]  22664.534            1
[INPUT] 0    0    [1    /1   ]  8805.1994            1
[INPUT] 0    0    [1    /1   ]  3608.581             1
[INPUT] 0    0    [1    /1   ]  1547.5521            1
[INPUT] 0    0    [1    /1   ]  689.37847            1
[INPUT] 0    0    [1    /1   ]  315.14031            1
[INPUT] 0    0    [1    /1   ]  138.18265            1
[INPUT] 0    0    [1    /1   ]  68.16737             1
[INPUT] 0    0    [1    /1   ]  33.564379            1
[INPUT] 0    0    [1    /1   ]  14.353186            1
[INPUT] 0    0    [1    /1   ]  7.2336632            1
[INPUT] 0    0    [1    /1   ]  2.7885074            1
[INPUT] 0    0    [1    /1   ]  1.3175266            1
[INPUT] 0    0    [1    /1   ]  0.32488872           1
[INPUT] 0    0    [1    /1   ]  0.12658044           1
[INPUT] 1    0    [1    /1   ]  253817.53            1
[INPUT] 1    0    [1    /1   ]  37469.968            1
[INPUT] 1    0    [1    /1   ]  8542.7047            1
[INPUT] 1    0    [1    /1   ]  2540.5533            1
[INPUT] 1    0    [1    /1   ]  900.08666            1
[INPUT] 1    0    [1    /1   ]  358.4085             1
[INPUT] 1    0    [1    /1   ]  154.19634            1
[INPUT] 1    0    [1    /1   ]  69.86487             1
[INPUT] 1    0    [1    /1   ]  32.230317            1
[INPUT] 1    0    [1    /1   ]  15.010916            1
[INPUT] 1    0    [1    /1   ]  7.1847793            1
[INPUT] 1    0    [1    /1   ]  3.0168275            1
[INPUT] 1    0    [1    /1   ]  1.297347             1
[INPUT] 1    0    [1    /1   ]  0.35170722           1
[INPUT] 1    0    [1    /1   ]  0.11396545           1
[INPUT] 2    0    [1    /1   ]  1801.4282            1
[INPUT] 2    0    [1    /1   ]  510.72511            1
[INPUT] 2    0    [1    /1   ]  191.81394            1
[INPUT] 2    0    [1    /1   ]  82.052302            1
[INPUT] 2    0    [1    /1   ]  37.828887            1
[INPUT] 2    0    [1    /1   ]  18.029143            1
[INPUT] 2    0    [1    /1   ]  8.7722344            1
[INPUT] 2    0    [1    /1   ]  4.1427236            1
[INPUT] 2    0    [1    /1   ]  1.8978754            1
[INPUT] 2    0    [1    /1   ]  0.82550579           1
[INPUT] 2    0    [1    /1   ]  0.29852385           1

nuclear repulsion = 14.02319608938
number of shells = 50
number of NR pGTOs = 128
number of NR cGTOs = 126
basis = {'H': 'ccpvdz', 'I': 'dyall_dz'}
ecp = {}
bas 0, expnt(s) = [13.01    1.962   0.4446]
bas 1, expnt(s) = [0.122]
bas 2, expnt(s) = [0.727]
bas 3, expnt(s) = [47671657.]
bas 4, expnt(s) = [8857802.1]
bas 5, expnt(s) = [2132717.2]
bas 6, expnt(s) = [591444.79]
bas 7, expnt(s) = [183355.35]
bas 8, expnt(s) = [62114.698]
bas 9, expnt(s) = [22664.534]
bas 10, expnt(s) = [8805.1994]
bas 11, expnt(s) = [3608.581]
bas 12, expnt(s) = [1547.5521]
bas 13, expnt(s) = [689.37847]
bas 14, expnt(s) = [315.14031]
bas 15, expnt(s) = [138.18265]
bas 16, expnt(s) = [68.16737]
bas 17, expnt(s) = [33.564379]
bas 18, expnt(s) = [14.353186]
bas 19, expnt(s) = [7.2336632]
bas 20, expnt(s) = [2.7885074]
bas 21, expnt(s) = [1.3175266]
bas 22, expnt(s) = [0.32488872]
bas 23, expnt(s) = [0.12658044]
bas 24, expnt(s) = [253817.53]
bas 25, expnt(s) = [37469.968]
bas 26, expnt(s) = [8542.7047]
bas 27, expnt(s) = [2540.5533]
bas 28, expnt(s) = [900.08666]
bas 29, expnt(s) = [358.4085]
bas 30, expnt(s) = [154.19634]
bas 31, expnt(s) = [69.86487]
bas 32, expnt(s) = [32.230317]
bas 33, expnt(s) = [15.010916]
bas 34, expnt(s) = [7.1847793]
bas 35, expnt(s) = [3.0168275]
bas 36, expnt(s) = [1.297347]
bas 37, expnt(s) = [0.35170722]
bas 38, expnt(s) = [0.11396545]
bas 39, expnt(s) = [1801.4282]
bas 40, expnt(s) = [510.72511]
bas 41, expnt(s) = [191.81394]
bas 42, expnt(s) = [82.052302]
bas 43, expnt(s) = [37.828887]
bas 44, expnt(s) = [18.029143]
bas 45, expnt(s) = [8.7722344]
bas 46, expnt(s) = [4.1427236]
bas 47, expnt(s) = [1.8978754]
bas 48, expnt(s) = [0.82550579]
bas 49, expnt(s) = [0.29852385]
CPU time:         0.18
arg.atm = [[ 1 20  1 23  0  0]
 [53 24  1 27  0  0]]
arg.bas = [[  0   0   3   1   0  28  31   0]
 [  0   0   1   1   0  34  35   0]
 [  0   1   1   1   0  36  37   0]
 [  1   0   1   1   0  38  39   0]
 [  1   0   1   1   0  40  41   0]
 [  1   0   1   1   0  42  43   0]
 [  1   0   1   1   0  44  45   0]
 [  1   0   1   1   0  46  47   0]
 [  1   0   1   1   0  48  49   0]
 [  1   0   1   1   0  50  51   0]
 [  1   0   1   1   0  52  53   0]
 [  1   0   1   1   0  54  55   0]
 [  1   0   1   1   0  56  57   0]
 [  1   0   1   1   0  58  59   0]
 [  1   0   1   1   0  60  61   0]
 [  1   0   1   1   0  62  63   0]
 [  1   0   1   1   0  64  65   0]
 [  1   0   1   1   0  66  67   0]
 [  1   0   1   1   0  68  69   0]
 [  1   0   1   1   0  70  71   0]
 [  1   0   1   1   0  72  73   0]
 [  1   0   1   1   0  74  75   0]
 [  1   0   1   1   0  76  77   0]
 [  1   0   1   1   0  78  79   0]
 [  1   1   1   1   0  80  81   0]
 [  1   1   1   1   0  82  83   0]
 [  1   1   1   1   0  84  85   0]
 [  1   1   1   1   0  86  87   0]
 [  1   1   1   1   0  88  89   0]
 [  1   1   1   1   0  90  91   0]
 [  1   1   1   1   0  92  93   0]
 [  1   1   1   1   0  94  95   0]
 [  1   1   1   1   0  96  97   0]
 [  1   1   1   1   0  98  99   0]
 [  1   1   1   1   0 100 101   0]
 [  1   1   1   1   0 102 103   0]
 [  1   1   1   1   0 104 105   0]
 [  1   1   1   1   0 106 107   0]
 [  1   1   1   1   0 108 109   0]
 [  1   2   1   1   0 110 111   0]
 [  1   2   1   1   0 112 113   0]
 [  1   2   1   1   0 114 115   0]
 [  1   2   1   1   0 116 117   0]
 [  1   2   1   1   0 118 119   0]
 [  1   2   1   1   0 120 121   0]
 [  1   2   1   1   0 122 123   0]
 [  1   2   1   1   0 124 125   0]
 [  1   2   1   1   0 126 127   0]
 [  1   2   1   1   0 128 129   0]
 [  1   2   1   1   0 130 131   0]]
arg.env = [0.00000000e+00 0.00000000e+00 0.00000000e+00 0.00000000e+00
 0.00000000e+00 0.00000000e+00 0.00000000e+00 0.00000000e+00
 0.00000000e+00 0.00000000e+00 0.00000000e+00 0.00000000e+00
 0.00000000e+00 0.00000000e+00 0.00000000e+00 0.00000000e+00
 0.00000000e+00 0.00000000e+00 0.00000000e+00 0.00000000e+00
 0.00000000e+00 0.00000000e+00 0.00000000e+00 0.00000000e+00
 0.00000000e+00 0.00000000e+00 3.77945225e+00 0.00000000e+00
 1.30100000e+01 1.96200000e+00 4.44600000e-01 5.79764064e-01
 9.83419580e-01 1.11930215e+00 1.22000000e-01 5.21536727e-01
 7.27000000e-01 1.95840453e+00 4.76716570e+07 1.44947327e+06
 8.85780210e+06 4.10213080e+05 2.13271720e+06 1.40998658e+05
 5.91444790e+05 5.38828653e+04 1.83355350e+05 2.23864492e+04
 6.21146980e+04 9.94055901e+03 2.26645340e+04 4.66686373e+03
 8.80519940e+03 2.29651571e+03 3.60858100e+03 1.17629802e+03
 1.54755210e+03 6.23374429e+02 6.89378470e+02 3.39905593e+02
 3.15140310e+02 1.88970056e+02 1.38182650e+02 1.01825174e+02
 6.81673700e+01 5.99373349e+01 3.35643790e+01 3.52309202e+01
 1.43531860e+01 1.86305750e+01 7.23366320e+00 1.11438110e+01
 2.78850740e+00 5.45184971e+00 1.31752660e+00 3.10695218e+00
 3.24888720e-01 1.08721641e+00 1.26580440e-01 5.36154524e-01
 2.53817530e+05 1.66202063e+07 3.74699680e+04 1.52085758e+06
 8.54270470e+03 2.39595488e+05 2.54055330e+03 5.26192654e+04
 9.00086660e+02 1.43826794e+04 3.58408500e+02 4.54943295e+03
 1.54196340e+02 1.58517412e+03 6.98648700e+01 5.89261357e+02
 3.22303170e+01 2.24034609e+02 1.50109160e+01 8.61972451e+01
 7.18477930e+00 3.43163574e+01 3.01682750e+00 1.15990519e+01
 1.29734700e+00 4.03928580e+00 3.51707220e-01 7.90152643e-01
 1.13965450e-01 1.93174993e-01 1.80142820e+03 1.29974771e+06
 5.10725110e+02 1.43171642e+05 1.91813940e+02 2.57970281e+04
 8.20523020e+01 5.83698038e+03 3.78288870e+01 1.50563819e+03
 1.80291430e+01 4.11609872e+02 8.77223440e+00 1.16673516e+02
 4.14272360e+00 3.13891686e+01 1.89787540e+00 8.00751674e+00
 8.25505790e-01 1.86547573e+00 2.98523850e-01 3.14588393e-01]
ecpbas  = []


******** <class 'pyscf.scf.dhf.DHF'> ********
method = DHF
initial guess = minao
damping factor = 0
level_shift factor = 0
DIIS = <class 'pyscf.scf.diis.CDIIS'>
diis_start_cycle = 1
diis_space = 8
SCF conv_tol = 1e-08
SCF conv_tol_grad = None
SCF max_cycles = 50
direct_scf = True
direct_scf_tol = 1e-13
chkfile to save SCF result = /home/fer/pyPPE/4c_ssc/tmp7n341lpx
max_memory 7000 MB (current use 95 MB)
with_ssss True, with_gaunt False, with_breit False
light speed = 137.03599967994
Set gradient conv threshold to 0.0001
Nelec from initial guess = 53.99250335374555
Coulomb integral: (LL|LL)
    CPU time for vj and vk     25.01 sec, wall time      2.12 sec
E1 = -17698.189581494  E_coul = 2653.3852047128
init E= -15030.7811806915
cond(S) = 2630506555.407614
    CPU time for initialize scf     25.23 sec, wall time      2.18 sec
HOMO 54 = -0.346478863239  LUMO 55 = -0.056152766683
NES  mo_energy = [-2495559.4335187  -2495559.4335187  -1101347.22060505 -1101347.22060505
  -561437.91631014  -561437.91631014  -311479.67771573  -311479.67771573
  -227273.44890123  -227273.44890123  -208566.82671969  -208566.82671969
  -208566.82643797  -208566.82643797  -185850.33794022  -185850.33794022
  -119095.80829544  -119095.80829544  -103119.79644572  -103119.79644572
   -97189.20967609   -97189.20967609   -97189.20841903   -97189.20841903
   -82311.87895209   -82311.87895209   -64188.06895771   -64188.06895771
   -61744.68897831   -61744.68897831   -61393.49559555   -61393.49559555
   -61393.49236512   -61393.49236512   -50361.82579073   -50361.82579073
   -49257.55951561   -49257.55951561   -47728.23872945   -47728.23872945
   -47728.23288197   -47728.23288197   -46963.90832613   -46963.90832613
   -46963.90403897   -46963.90403897   -45862.60538264   -45862.60538264
   -45862.59925329   -45862.59925329   -45862.59842908   -45862.59842908
   -44247.37897212   -44247.37897212   -43048.06607679   -43048.06607679
   -42156.05638245   -42156.05638245   -42156.04801457   -42156.04801457
   -41181.46988546   -41181.46988546   -41181.46190179   -41181.46190179
   -41063.66249403   -41063.66249403   -40720.42537591   -40720.42537591
   -40720.41397786   -40720.41397786   -40720.41243096   -40720.41243096
   -40308.19049157   -40308.19049157   -39774.02644662   -39774.02644662
   -39774.01597687   -39774.01597687   -39431.35880873   -39431.35880873
   -39262.64887831   -39262.64887831   -39262.63776089   -39262.63776089
   -39020.25435783   -39020.25435783   -39007.39069216   -39007.39069216
   -39007.37475644   -39007.37475644   -39007.37255314   -39007.37255314
   -38694.88242104   -38694.88242104   -38694.87013167   -38694.87013167
   -38591.6562166    -38591.6562166    -38451.79008114   -38451.79008114
   -38451.77603564   -38451.77603564   -38374.75908642   -38374.75908642
   -38298.27829987   -38298.27829987   -38298.25808858   -38298.25808858
   -38298.25520072   -38298.25520072   -38173.89929152   -38173.89929152
   -38173.88517374   -38173.88517374   -38149.21942673   -38149.21942673
   -38061.82604134   -38061.82604134   -38061.80895187   -38061.80895187
   -38032.28377454   -38032.28377454   -37964.82263527   -37964.82263527
   -37964.79789684   -37964.79789684   -37964.79416772   -37964.79416772
   -37906.82778201   -37906.82778201   -37906.81118622   -37906.81118622
   -37905.28028175   -37905.28028175   -37856.39506033   -37856.39506033
   -37856.37410877   -37856.37410877   -37841.62601718   -37841.62601718
   -37793.35812046   -37793.35812046   -37793.32792822   -37793.32792822
   -37793.32299403   -37793.32299403   -37765.86220322   -37765.86220322
   -37762.59819166   -37762.59819166   -37762.57920641   -37762.57920641
   -37740.88090573   -37740.88090573   -37740.85538145   -37740.85538145
   -37731.54731501   -37731.54731501   -37699.16250142   -37699.16250142
   -37699.12485691   -37699.12485691   -37699.11797759   -37699.11797759
   -37684.51615746   -37684.51615746   -37680.81850474   -37680.81850474
   -37680.79491195   -37680.79491195   -37672.46420133   -37672.46420133
   -37672.42932985   -37672.42932985   -37664.78017592   -37664.78017592
   -37644.54478854   -37644.54478854   -37644.49530648   -37644.49530648
   -37644.48494596   -37644.48494596   -37635.14337167   -37635.14337167
   -37632.09160879   -37632.09160879   -37632.05965311   -37632.05965311
   -37630.39323882   -37630.39323882   -37630.34895421   -37630.34895421
   -37623.98763585   -37623.98763585   -37611.61115223   -37611.61115223
   -37611.53956723   -37611.53956723   -37611.52251426   -37611.52251426
   -37604.85583554   -37604.85583554   -37603.64534338   -37603.64534338
   -37603.55546711   -37603.55546711   -37602.37490148   -37602.37490148
   -37602.32515411   -37602.32515411   -37596.51066403   -37596.51066403
   -37591.0318955    -37591.0318955    -37590.90731022   -37590.90731022
   -37590.8764617    -37590.8764617    -37586.12155161   -37586.12155161
   -37585.97826333   -37585.97826333   -37584.64318352   -37584.64318352
   -37582.69097959   -37582.69097959   -37582.57068858   -37582.57068858
   -37579.34833851   -37579.34833851   -37577.90848283   -37577.90848283
   -37577.21231206   -37577.21231206   -37577.13730312   -37577.13730312
   -37576.53858239   -37576.53858239   -37575.46805594   -37575.46805594
   -37573.85415872   -37573.85415872   -37572.92070813   -37572.92070813
   -37572.59306258   -37572.59306258   -37571.35207509   -37571.35207509
   -37571.14730783   -37571.14730783   -37569.10574376   -37569.10574376]
PES  mo_energy = [-1.23475386e+03 -1.23475386e+03 -1.94864791e+02 -1.94864791e+02
 -1.82495693e+02 -1.82495693e+02 -1.71066914e+02 -1.71066914e+02
 -1.71066910e+02 -1.71066910e+02 -4.10192977e+01 -4.10192977e+01
 -3.58006579e+01 -3.58006579e+01 -3.36235543e+01 -3.36235543e+01
 -3.36235163e+01 -3.36235163e+01 -2.45673123e+01 -2.45673123e+01
 -2.45672844e+01 -2.45672844e+01 -2.40325425e+01 -2.40325425e+01
 -2.40325290e+01 -2.40325290e+01 -2.40325042e+01 -2.40325042e+01
 -7.88220012e+00 -7.88220012e+00 -5.95740947e+00 -5.95740947e+00
 -5.55278865e+00 -5.55278865e+00 -5.55225019e+00 -5.55225019e+00
 -2.40690656e+00 -2.40690656e+00 -2.40622269e+00 -2.40622269e+00
 -2.33140389e+00 -2.33140389e+00 -2.33082038e+00 -2.33082038e+00
 -2.33043141e+00 -2.33043141e+00 -9.19172736e-01 -9.19172736e-01
 -4.62323396e-01 -4.62323396e-01 -3.67578167e-01 -3.67578167e-01
 -3.46478863e-01 -3.46478863e-01 -5.61527667e-02 -5.61527667e-02
  4.70759986e-01  4.70759986e-01  5.09155112e-01  5.09155112e-01
  5.38194433e-01  5.38194433e-01  5.45471920e-01  5.45471920e-01
  5.45918005e-01  5.45918005e-01  5.56447319e-01  5.56447319e-01
  5.61356200e-01  5.61356200e-01  5.62150871e-01  5.62150871e-01
  6.19662101e-01  6.19662101e-01  7.88081749e-01  7.88081749e-01
  1.55033576e+00  1.55033576e+00  1.55072853e+00  1.55072853e+00
  1.85806269e+00  1.85806269e+00  2.82034676e+00  2.82034676e+00
  2.85430067e+00  2.85430067e+00  2.85552590e+00  2.85552590e+00
  2.87634285e+00  2.87634285e+00  2.99764615e+00  2.99764615e+00
  4.40588577e+00  4.40588577e+00  4.68065377e+00  4.68065377e+00
  4.72682540e+00  4.72682540e+00  5.02030079e+00  5.02030079e+00
  9.94925821e+00  9.94925821e+00  9.98063018e+00  9.98063018e+00
  1.00712100e+01  1.00712100e+01  1.00795623e+01  1.00795623e+01
  1.01455576e+01  1.01455576e+01  2.23591215e+01  2.23591215e+01
  2.35727840e+01  2.35727840e+01  2.36016090e+01  2.36016090e+01
  2.83136193e+01  2.83136193e+01  2.98678441e+01  2.98678441e+01
  2.98977757e+01  2.98977757e+01  3.02095161e+01  3.02095161e+01
  3.02153398e+01  3.02153398e+01  3.02603588e+01  3.02603588e+01
  8.21792106e+01  8.21792106e+01  8.22035642e+01  8.22035642e+01
  8.30682336e+01  8.30682336e+01  8.30725835e+01  8.30725835e+01
  8.31053552e+01  8.31053552e+01  8.35900342e+01  8.35900342e+01
  8.75491721e+01  8.75491721e+01  8.75705886e+01  8.75705886e+01
  1.16002695e+02  1.16002695e+02  2.15783300e+02  2.15783300e+02
  2.15802347e+02  2.15802347e+02  2.18187979e+02  2.18187979e+02
  2.18191282e+02  2.18191282e+02  2.18216063e+02  2.18216063e+02
  2.65335064e+02  2.65335064e+02  2.76876703e+02  2.76876703e+02
  2.76893305e+02  2.76893305e+02  3.81371156e+02  3.81371156e+02
  5.65240661e+02  5.65240661e+02  5.65254926e+02  5.65254926e+02
  5.72688216e+02  5.72688216e+02  5.72690667e+02  5.72690667e+02
  5.72709044e+02  5.72709044e+02  7.64529906e+02  7.64529906e+02
  7.97533002e+02  7.97533002e+02  7.97545911e+02  7.97545911e+02
  1.10085096e+03  1.10085096e+03  1.55188171e+03  1.55188171e+03
  1.55189146e+03  1.55189146e+03  1.57957725e+03  1.57957725e+03
  1.57957892e+03  1.57957892e+03  1.57959144e+03  1.57959144e+03
  2.08522614e+03  2.08522614e+03  2.18482712e+03  2.18482712e+03
  2.18483680e+03  2.18483680e+03  2.86347036e+03  2.86347036e+03
  4.84261279e+03  4.84261279e+03  4.84261787e+03  4.84261787e+03
  4.99442467e+03  4.99442467e+03  4.99442554e+03  4.99442554e+03
  4.99443202e+03  4.99443202e+03  5.52361668e+03  5.52361668e+03
  5.84210431e+03  5.84210431e+03  5.84211081e+03  5.84211081e+03
  6.71322996e+03  6.71322996e+03  1.43586313e+04  1.43586313e+04
  1.43657293e+04  1.43657293e+04  1.54058735e+04  1.54058735e+04
  1.54058770e+04  1.54058770e+04  2.85414068e+04  2.85414068e+04
  3.75689513e+04  3.75689513e+04  4.10123500e+04  4.10123500e+04
  4.10123514e+04  4.10123514e+04  5.40085188e+04  5.40085188e+04
  9.98234354e+04  9.98234354e+04  1.07405217e+05  1.07405217e+05
  1.20465474e+05  1.20465474e+05  1.20465474e+05  1.20465474e+05
  1.84654282e+05  1.84654282e+05  3.49563164e+05  3.49563164e+05
  6.95460063e+05  6.95460063e+05  1.50618187e+06  1.50618187e+06]
Coulomb integral: (LL|LL)
    CPU time for vj and vk     25.88 sec, wall time      2.20 sec
E1 = -9804.9052347737  E_coul = 2634.7283607021
cycle= 1 E= -7156.15367798214  delta_E= 7.87e+03  |g|= 2.35  |ddm|=   12
    CPU time for cycle= 1     26.09 sec, wall time      2.36 sec
diis-norm(errvec)=6.48172
diis-c [-42.01265156+0.j   1.        +0.j]
HOMO 54 = -0.428818992109  LUMO 55 = -0.0758307873898
NES  mo_energy = [-2495565.36006232 -2495565.36006232 -1101352.9596518  -1101352.9596518
  -561443.39065673  -561443.39065673  -311484.69281331  -311484.69281331
  -227277.53096582  -227277.53096582  -208571.39804932  -208571.39804932
  -208571.39776124  -208571.39776124  -185854.63733195  -185854.63733195
  -119099.1449927   -119099.1449927   -103122.4834214   -103122.4834214
   -97192.14887031   -97192.14887031   -97192.14758202   -97192.14758202
   -82314.13344768   -82314.13344768   -64189.37027151   -64189.37027151
   -61745.96522008   -61745.96522008   -61394.90410063   -61394.90410063
   -61394.90080212   -61394.90080212   -50362.4209612    -50362.4209612
   -49258.04681733   -49258.04681733   -47728.75269114   -47728.75269114
   -47728.74676893   -47728.74676893   -46964.27440428   -46964.27440428
   -46964.27004493   -46964.27004493   -45862.97660494   -45862.97660494
   -45862.97044216   -45862.97044216   -45862.96955151   -45862.96955151
   -44247.61706076   -44247.61706076   -43048.22516591   -43048.22516591
   -42156.21143079   -42156.21143079   -42156.20302196   -42156.20302196
   -41181.54923382   -41181.54923382   -41181.54120847   -41181.54120847
   -41063.7508773    -41063.7508773    -40720.50312814   -40720.50312814
   -40720.49171165   -40720.49171165   -40720.49012837   -40720.49012837
   -40308.23992795   -40308.23992795   -39774.0686191    -39774.0686191
   -39774.05814532   -39774.05814532   -39431.38977268   -39431.38977268
   -39262.66779987   -39262.66779987   -39262.65665522   -39262.65665522
   -39020.26711518   -39020.26711518   -39007.40969457   -39007.40969457
   -39007.39374754   -39007.39374754   -39007.39152215   -39007.39152215
   -38694.89414475   -38694.89414475   -38694.88185862   -38694.88185862
   -38591.66665192   -38591.66665192   -38451.79504148   -38451.79504148
   -38451.78097406   -38451.78097406   -38374.76262792   -38374.76262792
   -38298.28342085   -38298.28342085   -38298.26320002   -38298.26320002
   -38298.26029356   -38298.26029356   -38173.90288969   -38173.90288969
   -38173.88875957   -38173.88875957   -38149.22263843   -38149.22263843
   -38061.82767629   -38061.82767629   -38061.81057345   -38061.81057345
   -38032.28534521   -38032.28534521   -37964.82412607   -37964.82412607
   -37964.79938149   -37964.79938149   -37964.79564057   -37964.79564057
   -37906.828847     -37906.828847     -37906.81224234   -37906.81224234
   -37905.28112437   -37905.28112437   -37856.39550321   -37856.39550321
   -37856.37454063   -37856.37454063   -37841.62630877   -37841.62630877
   -37793.35859103   -37793.35859103   -37793.32839448   -37793.32839448
   -37793.32345199   -37793.32345199   -37765.86251132   -37765.86251132
   -37762.59850086   -37762.59850086   -37762.57951378   -37762.57951378
   -37740.88107065   -37740.88107065   -37740.85553854   -37740.85553854
   -37731.54747429   -37731.54747429   -37699.1626491    -37699.1626491
   -37699.12500112   -37699.12500112   -37699.11811509   -37699.11811509
   -37684.5162262    -37684.5162262    -37680.81859734   -37680.81859734
   -37680.79499947   -37680.79499947   -37672.46425786   -37672.46425786
   -37672.42938098   -37672.42938098   -37664.78020569   -37664.78020569
   -37644.54483614   -37644.54483614   -37644.495352     -37644.495352
   -37644.48498755   -37644.48498755   -37635.1433959    -37635.1433959
   -37632.09163363   -37632.09163363   -37632.05967778   -37632.05967778
   -37630.39325454   -37630.39325454   -37630.34896586   -37630.34896586
   -37623.98764701   -37623.98764701   -37611.61116704   -37611.61116704
   -37611.53958042   -37611.53958042   -37611.5225245    -37611.5225245
   -37604.85584021   -37604.85584021   -37603.64534878   -37603.64534878
   -37603.55547058   -37603.55547058   -37602.37490784   -37602.37490784
   -37602.32515887   -37602.32515887   -37596.51066625   -37596.51066625
   -37591.03189964   -37591.03189964   -37590.90731357   -37590.90731357
   -37590.87646373   -37590.87646373   -37586.12155311   -37586.12155311
   -37585.9782641    -37585.9782641    -37584.64318463   -37584.64318463
   -37582.69098067   -37582.69098067   -37582.57069002   -37582.57069002
   -37579.3483392    -37579.3483392    -37577.90848621   -37577.90848621
   -37577.21231306   -37577.21231306   -37577.13730369   -37577.13730369
   -37576.53858928   -37576.53858928   -37575.46806697   -37575.46806697
   -37573.85416929   -37573.85416929   -37572.92070953   -37572.92070953
   -37572.59307001   -37572.59307001   -37571.3520755    -37571.3520755
   -37571.14730817   -37571.14730817   -37569.10574449   -37569.10574449]
PES  mo_energy = [-1.23668693e+03 -1.23668693e+03 -1.95607912e+02 -1.95607912e+02
 -1.83586928e+02 -1.83586928e+02 -1.71883081e+02 -1.71883081e+02
 -1.71882734e+02 -1.71882734e+02 -4.13102259e+01 -4.13102259e+01
 -3.61784739e+01 -3.61784739e+01 -3.39056601e+01 -3.39056601e+01
 -3.39036319e+01 -3.39036319e+01 -2.48711127e+01 -2.48711127e+01
 -2.48684389e+01 -2.48684389e+01 -2.43122296e+01 -2.43122296e+01
 -2.43110681e+01 -2.43110681e+01 -2.43087627e+01 -2.43087627e+01
 -8.00747408e+00 -8.00747408e+00 -6.10701296e+00 -6.10701296e+00
 -5.66247918e+00 -5.66247918e+00 -5.65602913e+00 -5.65602913e+00
 -2.51339569e+00 -2.51339569e+00 -2.50348651e+00 -2.50348651e+00
 -2.42832156e+00 -2.42832156e+00 -2.42352220e+00 -2.42352220e+00
 -2.41523945e+00 -2.41523945e+00 -9.71620352e-01 -9.71620352e-01
 -5.59760407e-01 -5.59760407e-01 -4.56623674e-01 -4.56623674e-01
 -4.28818992e-01 -4.28818992e-01 -7.58307874e-02 -7.58307874e-02
  3.97550056e-01  3.97550056e-01  4.65293010e-01  4.65293010e-01
  4.88979881e-01  4.88979881e-01  4.97231411e-01  4.97231411e-01
  5.02410310e-01  5.02410310e-01  5.25472279e-01  5.25472279e-01
  5.30502776e-01  5.30502776e-01  5.32763309e-01  5.32763309e-01
  5.37610767e-01  5.37610767e-01  7.01161260e-01  7.01161261e-01
  1.34182486e+00  1.34182486e+00  1.34229801e+00  1.34229801e+00
  1.66202217e+00  1.66202217e+00  2.76815687e+00  2.76815687e+00
  2.78806508e+00  2.78806508e+00  2.81107895e+00  2.81107895e+00
  2.81646988e+00  2.81646988e+00  2.92922429e+00  2.92922429e+00
  4.30967987e+00  4.30967987e+00  4.60719029e+00  4.60719029e+00
  4.64346511e+00  4.64346511e+00  4.92986648e+00  4.92986648e+00
  9.84930309e+00  9.84930309e+00  9.86992656e+00  9.86992656e+00
  9.97728066e+00  9.97728066e+00  9.97925095e+00  9.97925095e+00
  1.00368185e+01  1.00368185e+01  2.21424379e+01  2.21424379e+01
  2.34021672e+01  2.34021672e+01  2.34246619e+01  2.34246619e+01
  2.81123479e+01  2.81123479e+01  2.96983099e+01  2.96983099e+01
  2.97210438e+01  2.97210438e+01  3.00407600e+01  3.00407600e+01
  3.00411982e+01  3.00411982e+01  3.00823547e+01  3.00823547e+01
  8.18991761e+01  8.18991761e+01  8.19193480e+01  8.19193480e+01
  8.27856799e+01  8.27856799e+01  8.27864480e+01  8.27864480e+01
  8.28174369e+01  8.28174369e+01  8.31687858e+01  8.31687858e+01
  8.72065927e+01  8.72065927e+01  8.72247550e+01  8.72247550e+01
  1.15597519e+02  1.15597519e+02  2.15314154e+02  2.15314154e+02
  2.15330863e+02  2.15330863e+02  2.17734034e+02  2.17734034e+02
  2.17735348e+02  2.17735348e+02  2.17759145e+02  2.17759145e+02
  2.64589185e+02  2.64589185e+02  2.76240472e+02  2.76240472e+02
  2.76255353e+02  2.76255353e+02  3.80639083e+02  3.80639083e+02
  5.64435726e+02  5.64435726e+02  5.64448664e+02  5.64448664e+02
  5.71937995e+02  5.71937995e+02  5.71939326e+02  5.71939326e+02
  5.71957151e+02  5.71957151e+02  7.63299666e+02  7.63299666e+02
  7.96417406e+02  7.96417406e+02  7.96429293e+02  7.96429293e+02
  1.09959907e+03  1.09959907e+03  1.55049182e+03  1.55049182e+03
  1.55050071e+03  1.55050071e+03  1.57826645e+03  1.57826645e+03
  1.57826739e+03  1.57826739e+03  1.57827954e+03  1.57827954e+03
  2.08330291e+03  2.08330291e+03  2.18299740e+03  2.18299740e+03
  2.18300635e+03  2.18300635e+03  2.86152605e+03  2.86152605e+03
  4.84015425e+03  4.84015425e+03  4.84015877e+03  4.84015877e+03
  4.99202059e+03  4.99202059e+03  4.99202098e+03  4.99202098e+03
  4.99202723e+03  4.99202723e+03  5.52073313e+03  5.52073313e+03
  5.83930205e+03  5.83930205e+03  5.83930806e+03  5.83930806e+03
  6.71049144e+03  6.71049144e+03  1.43550986e+04  1.43550986e+04
  1.43616844e+04  1.43616844e+04  1.54019474e+04  1.54019474e+04
  1.54019507e+04  1.54019507e+04  2.85371736e+04  2.85371736e+04
  3.75637989e+04  3.75637989e+04  4.10074230e+04  4.10074230e+04
  4.10074242e+04  4.10074242e+04  5.40037278e+04  5.40037278e+04
  9.98182481e+04  9.98182481e+04  1.07399253e+05  1.07399253e+05
  1.20459930e+05  1.20459930e+05  1.20459930e+05  1.20459930e+05
  1.84648855e+05  1.84648855e+05  3.49557624e+05  3.49557624e+05
  6.95454492e+05  6.95454492e+05  1.50617629e+06  1.50617629e+06]
Coulomb integral: (LL|LL)
    CPU time for vj and vk     25.62 sec, wall time      2.17 sec
E1 = -9814.5331462774  E_coul = 2644.3139967765
cycle= 2 E= -7156.19595341152  delta_E= -0.0423  |g|= 0.412  |ddm|= 0.627
    CPU time for cycle= 2     25.86 sec, wall time      2.37 sec
diis-norm(errvec)=0.899868
diis-c [-0.49267464+0.j  0.08036673+0.j  0.91963327+0.j]
HOMO 54 = -0.430071857485  LUMO 55 = -0.0384776524602
NES  mo_energy = [-2495565.0497788  -2495565.0497788  -1101352.65625402 -1101352.65625402
  -561443.09447142  -561443.09447142  -311484.40812688  -311484.40812688
  -227277.29127854  -227277.29127854  -208571.12920259  -208571.12920259
  -208571.12891056  -208571.12891056  -185854.37094657  -185854.37094657
  -119098.90659817  -119098.90659817  -103122.28394245  -103122.28394245
   -97191.93085222   -97191.93085222   -97191.92954471   -97191.92954471
   -82313.93483586   -82313.93483586   -64189.23292664   -64189.23292664
   -61745.81661489   -61745.81661489   -61394.7559211    -61394.7559211
   -61394.75258139   -61394.75258139   -50362.32454369   -50362.32454369
   -49257.96985321   -49257.96985321   -47728.67096477   -47728.67096477
   -47728.66499867   -47728.66499867   -46964.20803608   -46964.20803608
   -46964.20363365   -46964.20363365   -45862.9070367    -45862.9070367
   -45862.90085458   -45862.90085458   -45862.89992488   -45862.89992488
   -44247.56347363   -44247.56347363   -43048.18894104   -43048.18894104
   -42156.17358672   -42156.17358672   -42156.16515574   -42156.16515574
   -41181.52474562   -41181.52474562   -41181.51669577   -41181.51669577
   -41063.72468734   -41063.72468734   -40720.47782696   -40720.47782696
   -40720.46640035   -40720.46640035   -40720.46479628   -40720.46479628
   -40308.22469061   -40308.22469061   -39774.05304274   -39774.05304274
   -39774.0425694    -39774.0425694    -39431.37806307   -39431.37806307
   -39262.65884702   -39262.65884702   -39262.64768584   -39262.64768584
   -39020.26075761   -39020.26075761   -39007.40058727   -39007.40058727
   -39007.38463382   -39007.38463382   -39007.38239526   -39007.38239526
   -38694.88813496   -38694.88813496   -38694.87585255   -38694.87585255
   -38591.66189568   -38591.66189567   -38451.79178333   -38451.79178333
   -38451.77770348   -38451.77770348   -38374.76007318   -38374.76007318
   -38298.28013781   -38298.28013781   -38298.25991162   -38298.25991162
   -38298.25699464   -38298.25699464   -38173.90058978   -38173.90058978
   -38173.88645286   -38173.88645286   -38149.22080835   -38149.22080835
   -38061.82655865   -38061.82655865   -38061.80944969   -38061.80944969
   -38032.28447407   -38032.28447407   -37964.82300969   -37964.82300969
   -37964.79826242   -37964.79826242   -37964.79451641   -37964.79451641
   -37906.82806116   -37906.82806116   -37906.81145384   -37906.81145384
   -37905.28043112   -37905.28043112   -37856.39510111   -37856.39510111
   -37856.37413377   -37856.37413377   -37841.62597046   -37841.62597046
   -37793.35821781   -37793.35821781   -37793.32801975   -37793.32801975
   -37793.3230741    -37793.3230741    -37765.86230807   -37765.86230807
   -37762.59825753   -37762.59825752   -37762.57927103   -37762.57927103
   -37740.88094623   -37740.88094623   -37740.85541167   -37740.85541167
   -37731.54738143   -37731.54738143   -37699.16252896   -37699.16252896
   -37699.12487998   -37699.12487998   -37699.11799162   -37699.11799162
   -37684.51615963   -37684.51615963   -37680.81852361   -37680.81852361
   -37680.79492398   -37680.79492398   -37672.46422627   -37672.46422627
   -37672.42934834   -37672.42934834   -37664.78017848   -37664.78017848
   -37644.54480913   -37644.54480913   -37644.49532475   -37644.49532475
   -37644.48495973   -37644.48495973   -37635.14338409   -37635.14338409
   -37632.09161956   -37632.09161956   -37632.05966471   -37632.05966471
   -37630.39324815   -37630.39324815   -37630.3489588    -37630.3489588
   -37623.98764357   -37623.98764357   -37611.61116274   -37611.61116274
   -37611.53957593   -37611.53957593   -37611.52251949   -37611.52251949
   -37604.85583767   -37604.85583767   -37603.6453488    -37603.6453488
   -37603.5554706    -37603.5554706    -37602.37490596   -37602.37490596
   -37602.32515664   -37602.32515664   -37596.51066594   -37596.51066594
   -37591.03189956   -37591.03189956   -37590.90731351   -37590.90731351
   -37590.87646365   -37590.87646365   -37586.12155326   -37586.12155326
   -37585.97826425   -37585.97826425   -37584.64318458   -37584.64318458
   -37582.69098039   -37582.69098039   -37582.57069028   -37582.57069028
   -37579.34833911   -37579.34833911   -37577.90848505   -37577.90848505
   -37577.21231307   -37577.21231307   -37577.13730388   -37577.13730388
   -37576.53858647   -37576.53858647   -37575.46806218   -37575.46806218
   -37573.85416462   -37573.85416462   -37572.9207089    -37572.9207089
   -37572.59306662   -37572.59306662   -37571.35207545   -37571.35207545
   -37571.14730818   -37571.14730818   -37569.10574419   -37569.10574419]
PES  mo_energy = [-1.23617735e+03 -1.23617735e+03 -1.95242824e+02 -1.95242824e+02
 -1.83204706e+02 -1.83204706e+02 -1.71500397e+02 -1.71500397e+02
 -1.71499833e+02 -1.71499833e+02 -4.11139529e+01 -4.11139529e+01
 -3.59793162e+01 -3.59793162e+01 -3.37080469e+01 -3.37080469e+01
 -3.37051548e+01 -3.37051548e+01 -2.46616838e+01 -2.46616838e+01
 -2.46576787e+01 -2.46576787e+01 -2.41028136e+01 -2.41028136e+01
 -2.41010635e+01 -2.41010635e+01 -2.40976442e+01 -2.40976442e+01
 -7.93818716e+00 -7.93818716e+00 -6.04431240e+00 -6.04431240e+00
 -5.59896530e+00 -5.59896530e+00 -5.59174303e+00 -5.59174303e+00
 -2.46335869e+00 -2.46335869e+00 -2.45156904e+00 -2.45156904e+00
 -2.37785439e+00 -2.37785439e+00 -2.37217165e+00 -2.37217165e+00
 -2.36235989e+00 -2.36235989e+00 -9.61856612e-01 -9.61856612e-01
 -5.38890944e-01 -5.38890944e-01 -4.57410620e-01 -4.57410620e-01
 -4.30071857e-01 -4.30071857e-01 -3.84776525e-02 -3.84776524e-02
  4.24569059e-01  4.24569059e-01  4.52470196e-01  4.52470196e-01
  4.93558577e-01  4.93558577e-01  5.01177355e-01  5.01177355e-01
  5.05338873e-01  5.05338873e-01  5.22724326e-01  5.22724326e-01
  5.28930860e-01  5.28930860e-01  5.29593076e-01  5.29593076e-01
  5.67454823e-01  5.67454823e-01  7.32172789e-01  7.32172789e-01
  1.43350495e+00  1.43350495e+00  1.43390395e+00  1.43390395e+00
  1.74646259e+00  1.74646259e+00  2.78139807e+00  2.78139807e+00
  2.80213572e+00  2.80213572e+00  2.82610667e+00  2.82610667e+00
  2.83195665e+00  2.83195665e+00  2.94308579e+00  2.94308579e+00
  4.33973062e+00  4.33973062e+00  4.64170324e+00  4.64170324e+00
  4.67561700e+00  4.67561700e+00  4.97102943e+00  4.97102943e+00
  9.90453354e+00  9.90453354e+00  9.92351841e+00  9.92351841e+00
  1.00332087e+01  1.00332087e+01  1.00368131e+01  1.00368131e+01
  1.00918246e+01  1.00918246e+01  2.22456109e+01  2.22456109e+01
  2.35122340e+01  2.35122340e+01  2.35334302e+01  2.35334302e+01
  2.82305540e+01  2.82305540e+01  2.98169528e+01  2.98169528e+01
  2.98376710e+01  2.98376710e+01  3.01594345e+01  3.01594345e+01
  3.01616463e+01  3.01616463e+01  3.02000739e+01  3.02000739e+01
  8.20902863e+01  8.20902863e+01  8.21088128e+01  8.21088128e+01
  8.29774560e+01  8.29774560e+01  8.29781102e+01  8.29781102e+01
  8.30077180e+01  8.30077180e+01  8.33639599e+01  8.33639599e+01
  8.74098051e+01  8.74098051e+01  8.74267872e+01  8.74267872e+01
  1.15815541e+02  1.15815541e+02  2.15583824e+02  2.15583824e+02
  2.15599332e+02  2.15599332e+02  2.18005555e+02  2.18005555e+02
  2.18005865e+02  2.18005865e+02  2.18029159e+02  2.18029159e+02
  2.64884305e+02  2.64884305e+02  2.76543303e+02  2.76543303e+02
  2.76557307e+02  2.76557307e+02  3.80954080e+02  3.80954080e+02
  5.64786692e+02  5.64786692e+02  5.64798842e+02  5.64798842e+02
  5.72291874e+02  5.72291874e+02  5.72292555e+02  5.72292555e+02
  5.72310060e+02  5.72310060e+02  7.63681297e+02  7.63681297e+02
  7.96804615e+02  7.96804615e+02  7.96815904e+02  7.96815904e+02
  1.09999112e+03  1.09999112e+03  1.55091588e+03  1.55091588e+03
  1.55092424e+03  1.55092424e+03  1.57869327e+03  1.57869327e+03
  1.57869377e+03  1.57869377e+03  1.57870571e+03  1.57870571e+03
  2.08374248e+03  2.08374248e+03  2.18343915e+03  2.18343915e+03
  2.18344766e+03  2.18344766e+03  2.86196061e+03  2.86196061e+03
  4.84061461e+03  4.84061461e+03  4.84061879e+03  4.84061879e+03
  4.99248031e+03  4.99248031e+03  4.99248042e+03  4.99248042e+03
  4.99248653e+03  4.99248653e+03  5.52118957e+03  5.52118957e+03
  5.83975559e+03  5.83975559e+03  5.83976131e+03  5.83976131e+03
  6.71092977e+03  6.71092977e+03  1.43555134e+04  1.43555134e+04
  1.43621162e+04  1.43621162e+04  1.54023694e+04  1.54023694e+04
  1.54023725e+04  1.54023725e+04  2.85375554e+04  2.85375554e+04
  3.75641874e+04  3.75641874e+04  4.10077940e+04  4.10077940e+04
  4.10077953e+04  4.10077953e+04  5.40040794e+04  5.40040794e+04
  9.98185768e+04  9.98185768e+04  1.07399608e+05  1.07399608e+05
  1.20460258e+05  1.20460258e+05  1.20460258e+05  1.20460258e+05
  1.84649168e+05  1.84649168e+05  3.49557926e+05  3.49557926e+05
  6.95454787e+05  6.95454787e+05  1.50617659e+06  1.50617659e+06]
Coulomb integral: (LL|LL)
    CPU time for vj and vk     25.27 sec, wall time      2.14 sec
E1 = -9809.9518776961  E_coul = 2639.7277019185
cycle= 3 E= -7156.20097968818  delta_E= -0.00503  |g|= 0.125  |ddm|= 0.225
    CPU time for cycle= 3     25.51 sec, wall time      2.34 sec
diis-norm(errvec)=0.251245
diis-c [-0.00279663+0.j  0.00169153+0.j  0.21932102+0.j  0.77898745+0.j]
HOMO 54 = -0.434684485086  LUMO 55 = -0.0387019548111
NES  mo_energy = [-2495565.11225947 -2495565.11225947 -1101352.71735533 -1101352.71735533
  -561443.15414329  -561443.15414329  -311484.46554566  -311484.46554566
  -227277.33965564  -227277.33965564  -208571.18346953  -208571.18346953
  -208571.1831766   -208571.1831766   -185854.42482454  -185854.42482454
  -119098.95511654  -119098.95511654  -103122.32461936  -103122.32461936
   -97191.97531528   -97191.97531528   -97191.97400342   -97191.97400342
   -82313.97575868   -82313.97575868   -64189.2616834    -64189.2616834
   -61745.84790836   -61745.84790836   -61394.78693004   -61394.78693004
   -61394.78358113   -61394.78358113   -50362.34557586   -50362.34557586
   -49257.98677306   -49257.98677306   -47728.68885262   -47728.68885262
   -47728.6828771    -47728.6828771    -46964.22282136   -46964.22282136
   -46964.21840929   -46964.21840929   -45862.92247535   -45862.92247535
   -45862.91628907   -45862.91628907   -45862.91535105   -45862.91535105
   -44247.57577425   -44247.57577425   -43048.19756944   -43048.19756944
   -42156.18243401   -42156.18243401   -42156.17399892   -42156.17399892
   -41181.53084762   -41181.53084762   -41181.52279239   -41181.52279239
   -41063.73106922   -41063.73106922   -40720.48405001   -40720.48405001
   -40720.47262134   -40720.47262134   -40720.47101314   -40720.47101314
   -40308.22874301   -40308.22874301   -39774.05702937   -39774.05702937
   -39774.04655718   -39774.04655718   -39431.38110393   -39431.38110393
   -39262.66134789   -39262.66134789   -39262.650183     -39262.650183
   -39020.26256746   -39020.26256746   -39007.4031019    -39007.4031019
   -39007.38714705   -39007.38714705   -39007.38490573   -39007.38490573
   -38694.88983122   -38694.88983122   -38694.8775503    -38694.8775503
   -38591.66325337   -38591.66325337   -38451.79278867   -38451.79278867
   -38451.77870602   -38451.77870602   -38374.76084999   -38374.76084999
   -38298.28113606   -38298.28113606   -38298.26090864   -38298.26090864
   -38298.25798931   -38298.25798931   -38173.90128832   -38173.90128832
   -38173.88714991   -38173.88714991   -38149.22137658   -38149.22137658
   -38061.82694555   -38061.82694555   -38061.80983525   -38061.80983525
   -38032.28478303   -38032.28478303   -37964.82338173   -37964.82338173
   -37964.79863387   -37964.79863387   -37964.79488682   -37964.79488682
   -37906.82832339   -37906.82832339   -37906.81171529   -37906.81171529
   -37905.28065779   -37905.28065779   -37856.3952503    -37856.3952503
   -37856.37428192   -37856.37428192   -37841.6260902    -37841.6260902
   -37793.35835582   -37793.35835582   -37793.32815742   -37793.32815742
   -37793.32321115   -37793.32321115   -37765.86238515   -37765.86238515
   -37762.59834677   -37762.59834677   -37762.57936067   -37762.57936067
   -37740.88099918   -37740.88099918   -37740.85546407   -37740.85546407
   -37731.54742224   -37731.54742224   -37699.16257906   -37699.16257906
   -37699.12492981   -37699.12492981   -37699.11804097   -37699.11804097
   -37684.51618609   -37684.51618609   -37680.81855436   -37680.81855436
   -37680.79495441   -37680.79495441   -37672.46424234   -37672.46424234
   -37672.42936416   -37672.42936416   -37664.78019078   -37664.78019078
   -37644.5448222    -37644.5448222    -37644.49533775   -37644.49533775
   -37644.48497261   -37644.48497261   -37635.14339028   -37635.14339028
   -37632.09162598   -37632.09162598   -37632.05967145   -37632.05967145
   -37630.39325245   -37630.39325245   -37630.34896291   -37630.34896291
   -37623.98764621   -37623.98764621   -37611.61116606   -37611.61116606
   -37611.53957918   -37611.53957918   -37611.52252261   -37611.52252261
   -37604.85583912   -37604.85583912   -37603.64534959   -37603.64534959
   -37603.55547136   -37603.55547136   -37602.37490748   -37602.37490748
   -37602.32515811   -37602.32515811   -37596.51066637   -37596.51066637
   -37591.03190018   -37591.03190018   -37590.90731413   -37590.90731413
   -37590.87646426   -37590.87646426   -37586.12155335   -37586.12155335
   -37585.97826435   -37585.97826435   -37584.64318475   -37584.64318475
   -37582.69098044   -37582.69098044   -37582.57069044   -37582.57069044
   -37579.34833914   -37579.34833914   -37577.90848506   -37577.90848506
   -37577.21231311   -37577.21231311   -37577.13730395   -37577.13730395
   -37576.53858647   -37576.53858647   -37575.46806205   -37575.46806205
   -37573.85416448   -37573.85416448   -37572.92070889   -37572.92070889
   -37572.59306649   -37572.59306649   -37571.35207544   -37571.35207544
   -37571.14730819   -37571.14730819   -37569.1057442    -37569.1057442 ]
PES  mo_energy = [-1.23629130e+03 -1.23629130e+03 -1.95344635e+02 -1.95344635e+02
 -1.83310710e+02 -1.83310710e+02 -1.71604128e+02 -1.71604128e+02
 -1.71603534e+02 -1.71603534e+02 -4.11812130e+01 -4.11812130e+01
 -3.60485722e+01 -3.60485722e+01 -3.37751351e+01 -3.37751351e+01
 -3.37721173e+01 -3.37721173e+01 -2.47333009e+01 -2.47333009e+01
 -2.47290254e+01 -2.47290254e+01 -2.41733544e+01 -2.41733544e+01
 -2.41714894e+01 -2.41714894e+01 -2.41678487e+01 -2.41678487e+01
 -7.96869298e+00 -7.96869298e+00 -6.07413979e+00 -6.07413979e+00
 -5.62664056e+00 -5.62664056e+00 -5.61946183e+00 -5.61946183e+00
 -2.48819350e+00 -2.48819350e+00 -2.47601694e+00 -2.47601694e+00
 -2.40166077e+00 -2.40166077e+00 -2.39581552e+00 -2.39581552e+00
 -2.38569387e+00 -2.38569387e+00 -9.67593008e-01 -9.67593008e-01
 -5.42711290e-01 -5.42711290e-01 -4.62373534e-01 -4.62373534e-01
 -4.34684485e-01 -4.34684485e-01 -3.87019548e-02 -3.87019548e-02
  4.22157611e-01  4.22157611e-01  4.51601988e-01  4.51601988e-01
  4.89944739e-01  4.89944739e-01  4.97789516e-01  4.97789516e-01
  5.01969628e-01  5.01969628e-01  5.18733508e-01  5.18733508e-01
  5.25094538e-01  5.25094538e-01  5.25520488e-01  5.25520488e-01
  5.65032450e-01  5.65032450e-01  7.31056232e-01  7.31056232e-01
  1.43606543e+00  1.43606543e+00  1.43647393e+00  1.43647393e+00
  1.74768209e+00  1.74768209e+00  2.77051161e+00  2.77051161e+00
  2.79136396e+00  2.79136396e+00  2.81553385e+00  2.81553385e+00
  2.82143959e+00  2.82143959e+00  2.93310819e+00  2.93310819e+00
  4.32231841e+00  4.32231841e+00  4.62416012e+00  4.62416012e+00
  4.65919366e+00  4.65919366e+00  4.95087550e+00  4.95087550e+00
  9.87987441e+00  9.87987441e+00  9.89850626e+00  9.89850626e+00
  1.00083997e+01  1.00083997e+01  1.00123341e+01  1.00123341e+01
  1.00668863e+01  1.00668863e+01  2.22045036e+01  2.22045036e+01
  2.34709760e+01  2.34709760e+01  2.34920159e+01  2.34920159e+01
  2.81858940e+01  2.81858940e+01  2.97729389e+01  2.97729389e+01
  2.97932705e+01  2.97932705e+01  3.01151290e+01  3.01151290e+01
  3.01176827e+01  3.01176827e+01  3.01556065e+01  3.01556065e+01
  8.20263838e+01  8.20263838e+01  8.20445726e+01  8.20445726e+01
  8.29133250e+01  8.29133250e+01  8.29142664e+01  8.29142664e+01
  8.29434516e+01  8.29434516e+01  8.32979624e+01  8.32979624e+01
  8.73436479e+01  8.73436479e+01  8.73604197e+01  8.73604197e+01
  1.15744705e+02  1.15744705e+02  2.15500960e+02  2.15500960e+02
  2.15516213e+02  2.15516213e+02  2.17922863e+02  2.17922863e+02
  2.17922965e+02  2.17922965e+02  2.17946158e+02  2.17946158e+02
  2.64796382e+02  2.64796382e+02  2.76455340e+02  2.76455340e+02
  2.76469169e+02  2.76469169e+02  3.80862933e+02  3.80862933e+02
  5.64688181e+02  5.64688181e+02  5.64700157e+02  5.64700157e+02
  5.72193683e+02  5.72193683e+02  5.72194228e+02  5.72194228e+02
  5.72211667e+02  5.72211667e+02  7.63579493e+02  7.63579493e+02
  7.96702991e+02  7.96702991e+02  7.96714156e+02  7.96714156e+02
  1.09988911e+03  1.09988911e+03  1.55080953e+03  1.55080953e+03
  1.55081778e+03  1.55081778e+03  1.57858733e+03  1.57858733e+03
  1.57858774e+03  1.57858774e+03  1.57859964e+03  1.57859964e+03
  2.08363660e+03  2.08363660e+03  2.18333373e+03  2.18333373e+03
  2.18334216e+03  2.18334216e+03  2.86185749e+03  2.86185749e+03
  4.84051131e+03  4.84051131e+03  4.84051542e+03  4.84051542e+03
  4.99237775e+03  4.99237775e+03  4.99237780e+03  4.99237780e+03
  4.99238388e+03  4.99238388e+03  5.52108819e+03  5.52108819e+03
  5.83965531e+03  5.83965531e+03  5.83966096e+03  5.83966096e+03
  6.71083239e+03  6.71083239e+03  1.43554251e+04  1.43554251e+04
  1.43620253e+04  1.43620253e+04  1.54022807e+04  1.54022807e+04
  1.54022838e+04  1.54022838e+04  2.85374763e+04  2.85374763e+04
  3.75641080e+04  3.75641080e+04  4.10077182e+04  4.10077182e+04
  4.10077195e+04  4.10077195e+04  5.40040076e+04  5.40040076e+04
  9.98185102e+04  9.98185102e+04  1.07399536e+05  1.07399536e+05
  1.20460192e+05  1.20460192e+05  1.20460192e+05  1.20460192e+05
  1.84649105e+05  1.84649105e+05  3.49557865e+05  3.49557865e+05
  6.95454728e+05  6.95454728e+05  1.50617653e+06  1.50617653e+06]
Coulomb integral: (LL|LL)
    CPU time for vj and vk     24.89 sec, wall time      2.12 sec
E1 = -9811.5518050335  E_coul = 2641.3268491286
cycle= 4 E= -7156.20175981543  delta_E= -0.00078  |g|= 0.0157  |ddm|= 0.0913
    CPU time for cycle= 4     25.13 sec, wall time      2.32 sec
    CPU time for scf_cycle    127.82 sec, wall time     11.58 sec
Coulomb integral: (LL|LL) + (SS|LL)
    CPU time for vj and vk     85.18 sec, wall time      7.18 sec
E1 = -9811.5518050335  E_coul = 2681.0373313254
init E= -7116.49127761869
cond(S) = 2630506555.407614
    CPU time for initialize scf     85.38 sec, wall time      7.25 sec
HOMO 54 = -0.330494976308  LUMO 55 = 0.0373521289979
NES  mo_energy = [-2495406.19962673 -2495406.19962673 -1101190.23591897 -1101190.23591897
  -561277.07913463  -561277.07913463  -311312.94285446  -311312.94285446
  -227082.16770353  -227082.16770353  -208391.971365    -208391.971365
  -208391.97105936  -208391.97105936  -185674.84493583  -185674.84493582
  -118908.23827497  -118908.23827497  -102910.22480192  -102910.22480192
   -96992.51586483   -96992.51586483   -96992.51445635   -96992.51445635
   -82109.45692559   -82109.45692559   -63955.60833271   -63955.60833271
   -61527.17131877   -61527.17131877   -61175.11746282   -61175.11746282
   -61175.11369207   -61175.11369207   -50133.75429084   -50133.75429084
   -49011.90361414   -49011.90361414   -47500.6099631    -47500.6099631
   -47500.60286556   -47500.60286556   -46719.16384017   -46719.16384017
   -46719.15856802   -46719.15856802   -45639.0326982    -45639.0326982
   -45639.02588688   -45639.02588688   -45639.02375458   -45639.02375458
   -44017.96959528   -44017.96959528   -42805.49331576   -42805.49331576
   -41935.09336189   -41935.09336189   -41935.08301889   -41935.08301889
   -40951.40385181   -40951.40385181   -40951.39395605   -40951.39395605
   -40843.2221597    -40843.2221597    -40512.69391379   -40512.69391379
   -40512.68150381   -40512.68150381   -40512.67811382   -40512.67811382
   -40081.19057397   -40081.19057397   -39570.80189342   -39570.80189342
   -39570.78904712   -39570.78904712   -39228.03387563   -39228.03387563
   -39057.43942732   -39057.43942732   -39057.4257788    -39057.4257788
   -38826.0551715    -38826.0551715    -38826.03799183   -38826.03799183
   -38826.03366329   -38826.03366329   -38815.70896422   -38815.70896422
   -38516.18089678   -38516.18089678   -38516.16572631   -38516.16572631
   -38410.87359536   -38410.87359536   -38274.89287115   -38274.89287115
   -38274.87554039   -38274.87554039   -38196.47458834   -38196.47458834
   -38145.82509855   -38145.82509855   -38145.80291902   -38145.80291902
   -38145.79673257   -38145.79673257   -38022.27804787   -38022.27804787
   -38022.25969495   -38022.25969495   -37993.52413991   -37993.52413991
   -37913.52058622   -37913.52058622   -37913.49858993   -37913.49858993
   -37881.78477609   -37881.78477609   -37839.70638372   -37839.70638372
   -37839.67896913   -37839.67896913   -37839.67078704   -37839.67078704
   -37782.03233384   -37782.03233384   -37782.01034722   -37782.01034722
   -37775.28403798   -37775.28403798   -37735.09641029   -37735.09641029
   -37735.06899352   -37735.06899352   -37718.55681532   -37718.55681532
   -37694.01559016   -37694.01559016   -37693.98259985   -37693.98259985
   -37693.9722801    -37693.9722801    -37663.90991881   -37663.90991881
   -37663.88377556   -37663.88377556   -37661.96518362   -37661.96518362
   -37644.89320896   -37644.89320896   -37644.85981317   -37644.85981317
   -37634.63194773   -37634.63194773   -37622.3351054    -37622.3351054
   -37622.29457337   -37622.29457337   -37622.28015657   -37622.28015657
   -37605.44607678   -37605.44607678   -37605.41195656   -37605.41195656
   -37604.92316467   -37604.92316466   -37598.66206686   -37598.66206686
   -37598.61886827   -37598.61886827   -37591.60574238   -37591.60574238
   -37586.52506441   -37586.52506441   -37586.47529884   -37586.47529884
   -37586.45653343   -37586.45653343   -37576.77245054   -37576.77245054
   -37576.72591831   -37576.72591831   -37576.59149898   -37576.59149898
   -37575.23714952   -37575.23714952   -37575.18278559   -37575.18278559
   -37570.59950709   -37570.59950709   -37569.64307152   -37569.64307152
   -37569.58081317   -37569.58081317   -37569.5540908    -37569.5540908
   -37564.38994587   -37564.38994587   -37564.30361127   -37564.30361127
   -37564.29147113   -37564.29147113   -37564.22183565   -37564.22183565
   -37564.14512084   -37564.14512084   -37562.13145596   -37562.13145596
   -37562.03477446   -37562.03477446   -37561.99313062   -37561.99313062
   -37561.50874059   -37561.50874059   -37560.86750256   -37560.86750256
   -37560.21636665   -37560.21636665   -37559.97967241   -37559.97967241
   -37559.87305188   -37559.87305188   -37559.62324876   -37559.62324876
   -37559.59902827   -37559.59902827   -37559.39005841   -37559.39005841
   -37559.34112238   -37559.34112238   -37559.33268017   -37559.33268017
   -37558.95834499   -37558.95834499   -37558.87340107   -37558.87340107
   -37558.85697684   -37558.85697684   -37558.4973672    -37558.4973672
   -37558.20103115   -37558.20103115   -37558.05485104   -37558.05485104
   -37558.05273487   -37558.05273487   -37557.96916368   -37557.96916368]
PES  mo_energy = [-1.22424225e+03 -1.22424225e+03 -1.91905798e+02 -1.91905798e+02
 -1.79362813e+02 -1.79362813e+02 -1.68358633e+02 -1.68358633e+02
 -1.68357992e+02 -1.68357992e+02 -3.99603182e+01 -3.99603182e+01
 -3.47563315e+01 -3.47563315e+01 -3.26405465e+01 -3.26405465e+01
 -3.26372929e+01 -3.26372929e+01 -2.35849619e+01 -2.35849619e+01
 -2.35803935e+01 -2.35803935e+01 -2.31464567e+01 -2.31464567e+01
 -2.31444660e+01 -2.31444660e+01 -2.31405884e+01 -2.31405884e+01
 -7.52306781e+00 -7.52306781e+00 -5.64016422e+00 -5.64016422e+00
 -5.22991474e+00 -5.22991474e+00 -5.22207765e+00 -5.22207765e+00
 -2.15061403e+00 -2.15061403e+00 -2.13792494e+00 -2.13792494e+00
 -2.08504006e+00 -2.08504006e+00 -2.07873232e+00 -2.07873232e+00
 -2.06835576e+00 -2.06835576e+00 -8.36228054e-01 -8.36228054e-01
 -4.54826966e-01 -4.54826966e-01 -3.55636550e-01 -3.55636550e-01
 -3.30494976e-01 -3.30494976e-01  3.73521290e-02  3.73521290e-02
  5.00023029e-01  5.00023029e-01  5.43485121e-01  5.43485121e-01
  5.84024140e-01  5.84024140e-01  5.97318439e-01  5.97318439e-01
  5.98968383e-01  5.98968383e-01  6.17981359e-01  6.17981359e-01
  6.22667631e-01  6.22667631e-01  6.26157569e-01  6.26157569e-01
  6.48577950e-01  6.48577950e-01  8.18842785e-01  8.18842785e-01
  1.49282960e+00  1.49282960e+00  1.49312548e+00  1.49312548e+00
  1.81444864e+00  1.81444865e+00  2.97137111e+00  2.97137111e+00
  2.98936468e+00  2.98936468e+00  3.01066965e+00  3.01066965e+00
  3.01550127e+00  3.01550127e+00  3.12497523e+00  3.12497523e+00
  4.63256837e+00  4.63256837e+00  4.93080284e+00  4.93080284e+00
  4.96589031e+00  4.96589031e+00  5.28185904e+00  5.28185904e+00
  1.02828851e+01  1.02828851e+01  1.02997206e+01  1.02997206e+01
  1.03905792e+01  1.03905792e+01  1.03947466e+01  1.03947466e+01
  1.04497884e+01  1.04497884e+01  2.30211311e+01  2.30211311e+01
  2.42558888e+01  2.42558888e+01  2.42768437e+01  2.42768437e+01
  2.91302361e+01  2.91302361e+01  3.05598205e+01  3.05598205e+01
  3.05792593e+01  3.05792593e+01  3.08467007e+01  3.08467007e+01
  3.08495206e+01  3.08495206e+01  3.08873148e+01  3.08873148e+01
  8.35427887e+01  8.35427887e+01  8.35605402e+01  8.35605402e+01
  8.43054055e+01  8.43054055e+01  8.43065793e+01  8.43065793e+01
  8.43354420e+01  8.43354420e+01  8.52658615e+01  8.52658615e+01
  8.92022906e+01  8.92022906e+01  8.92189629e+01  8.92189629e+01
  1.18219808e+02  1.18219808e+02  2.18521032e+02  2.18521032e+02
  2.18536039e+02  2.18536039e+02  2.20692191e+02  2.20692191e+02
  2.20692257e+02  2.20692257e+02  2.20715316e+02  2.20715316e+02
  2.69322618e+02  2.69322618e+02  2.80694439e+02  2.80694439e+02
  2.80708177e+02  2.80708177e+02  3.86829844e+02  3.86829844e+02
  5.71182961e+02  5.71182961e+02  5.71194782e+02  5.71194782e+02
  5.78206040e+02  5.78206040e+02  5.78206471e+02  5.78206471e+02
  5.78223886e+02  5.78223886e+02  7.73613137e+02  7.73613137e+02
  8.06143878e+02  8.06143878e+02  8.06154952e+02  8.06154952e+02
  1.11355342e+03  1.11355342e+03  1.56607515e+03  1.56607515e+03
  1.56608326e+03  1.56608326e+03  1.59288636e+03  1.59288636e+03
  1.59288665e+03  1.59288665e+03  1.59289852e+03  1.59289852e+03
  2.10523975e+03  2.10523975e+03  2.20407572e+03  2.20407572e+03
  2.20408400e+03  2.20408400e+03  2.89007733e+03  2.89007733e+03
  4.87881975e+03  4.87881975e+03  4.87882372e+03  4.87882372e+03
  5.02896207e+03  5.02896207e+03  5.02896222e+03  5.02896222e+03
  5.02896807e+03  5.02896807e+03  5.56477286e+03  5.56477286e+03
  5.88304049e+03  5.88304049e+03  5.88304595e+03  5.88304595e+03
  6.76173894e+03  6.76173894e+03  1.44346724e+04  1.44346724e+04
  1.44389609e+04  1.44389609e+04  1.54817471e+04  1.54817471e+04
  1.54817501e+04  1.54817501e+04  2.86447831e+04  2.86447831e+04
  3.76756508e+04  3.76756508e+04  4.11267299e+04  4.11267299e+04
  4.11267311e+04  4.11267311e+04  5.41341088e+04  5.41341088e+04
  9.99646668e+04  9.99646668e+04  1.07533951e+05  1.07533951e+05
  1.20608031e+05  1.20608031e+05  1.20608032e+05  1.20608032e+05
  1.84805590e+05  1.84805590e+05  3.49720654e+05  3.49720654e+05
  6.95621289e+05  6.95621289e+05  1.50634489e+06  1.50634489e+06]
Coulomb integral: (LL|LL) + (SS|LL)
    CPU time for vj and vk     82.30 sec, wall time      6.96 sec
E1 = -9768.8885898984  E_coul = 2638.1498060412
cycle= 1 E= -7116.71558776786  delta_E= -0.224  |g|= 1.46  |ddm|= 1.24
    CPU time for cycle= 1     82.53 sec, wall time      7.11 sec
diis-norm(errvec)=3.29294
diis-c [-10.84348166+0.j   1.        +0.j]
HOMO 54 = -0.39627054458  LUMO 55 = 0.00812703085525
NES  mo_energy = [-2495409.71811214 -2495409.71811214 -1101193.75130526 -1101193.75130526
  -561280.58667692  -561280.58667692  -311316.43030907  -311316.43030907
  -227085.64478663  -227085.64478663  -208395.43921883  -208395.43921883
  -208395.43891343  -208395.43891343  -185678.28724452  -185678.28724452
  -118911.59337897  -118911.59337897  -102913.59089667  -102913.59089667
   -96995.82944811   -96995.82944811   -96995.82804094   -96995.82804094
   -82112.66980915   -82112.66980915   -63958.7690467    -63958.7690467
   -61530.19035864   -61530.19035864   -61178.14738179   -61178.14738178
   -61178.14361458   -61178.14361458   -50136.54844715   -50136.54844715
   -49014.80349037   -49014.80349037   -47503.30777691   -47503.30777691
   -47503.30068376   -47503.30068376   -46721.97720494   -46721.97720494
   -46721.9719367    -46721.9719367    -45641.61675432   -45641.61675432
   -45641.60994467   -45641.60994467   -45641.60781512   -45641.60781512
   -44020.52455289   -44020.52455289   -42808.11157966   -42808.11157966
   -41937.47373292   -41937.47373292   -41937.46339      -41937.46339
   -40953.81151999   -40953.81151999   -40953.80162556   -40953.80162556
   -40845.51893149   -40845.51893149   -40514.8452456    -40514.8452456
   -40514.83283458   -40514.83283458   -40514.82943922   -40514.82943922
   -40083.50913066   -40083.50913066   -39572.83545771   -39572.83545771
   -39572.82260648   -39572.82260648   -39230.0375103    -39230.0375103
   -39059.45794395   -39059.45794395   -39059.44429255   -39059.44429255
   -38827.76299892   -38827.76299892   -38827.74582132   -38827.74582132
   -38827.74148816   -38827.74148816   -38817.69846338   -38817.69846338
   -38517.83875074   -38517.83875074   -38517.82357611   -38517.82357611
   -38412.551704     -38412.551704     -38276.51292402   -38276.51292402
   -38276.49558998   -38276.49558998   -38198.10841455   -38198.10841455
   -38147.16070166   -38147.16070166   -38147.13852086   -38147.13852086
   -38147.13231389   -38147.13231389   -38023.59570417   -38023.59570417
   -38023.5773314    -38023.5773314    -37994.88482547   -37994.88482547
   -37914.78986408   -37914.78986408   -37914.76785036   -37914.76785036
   -37883.07804696   -37883.07804696   -37840.69078652   -37840.69078651
   -37840.66334621   -37840.66334621   -37840.6550983    -37840.6550983
   -37783.01140706   -37783.01140706   -37782.98935395   -37782.98935395
   -37776.32893223   -37776.32893223   -37736.03202455   -37736.03202455
   -37736.00455027   -37736.00455027   -37719.51544248   -37719.51544248
   -37694.69632184   -37694.69632184   -37694.66331212   -37694.66331212
   -37694.65294296   -37694.65294296   -37664.58609788   -37664.58609788
   -37664.55990661   -37664.55990661   -37662.69709726   -37662.69709726
   -37645.54724418   -37645.54724418   -37645.5138097    -37645.5138097
   -37635.29668465   -37635.29668465   -37622.83125586   -37622.83125586
   -37622.79072083   -37622.79072083   -37622.77623611   -37622.77623611
   -37605.93138957   -37605.93138957   -37605.89719993   -37605.89719993
   -37605.4418293    -37605.4418293    -37599.13217875   -37599.13217875
   -37599.08895181   -37599.08895181   -37592.07292689   -37592.07292689
   -37586.84784158   -37586.84784158   -37586.79802364   -37586.79802364
   -37586.77914622   -37586.77914622   -37577.06935793   -37577.06935793
   -37577.022002     -37577.022002     -37576.92102839   -37576.92102839
   -37575.53293603   -37575.53293603   -37575.47853915   -37575.47853915
   -37570.87832616   -37570.87832616   -37569.81483208   -37569.81483208
   -37569.75256344   -37569.75256344   -37569.72582234   -37569.72582234
   -37564.54565901   -37564.54565901   -37564.45906939   -37564.45906939
   -37564.43637439   -37564.43637439   -37564.366548     -37564.366548
   -37564.30834964   -37564.30834964   -37562.21908495   -37562.21908495
   -37562.12356843   -37562.12356843   -37562.08165432   -37562.08165432
   -37561.63265179   -37561.63265179   -37560.83165131   -37560.83165131
   -37560.22241504   -37560.22241504   -37559.94151886   -37559.94151886
   -37559.85844393   -37559.85844393   -37559.68208688   -37559.68208688
   -37559.66692898   -37559.66692898   -37559.44714351   -37559.44714351
   -37559.39856315   -37559.39856315   -37559.39679856   -37559.39679856
   -37558.98073536   -37558.98073536   -37558.89941043   -37558.89941043
   -37558.8842845    -37558.8842845    -37558.54180544   -37558.54180544
   -37558.20275279   -37558.20275279   -37558.06265057   -37558.06265057
   -37558.06069322   -37558.06069322   -37557.9712636    -37557.9712636 ]
PES  mo_energy = [-1.22684531e+03 -1.22684531e+03 -1.93583985e+02 -1.93583985e+02
 -1.81158899e+02 -1.81158899e+02 -1.70117322e+02 -1.70117322e+02
 -1.70116738e+02 -1.70116738e+02 -4.08629131e+01 -4.08629131e+01
 -3.56865841e+01 -3.56865841e+01 -3.35477008e+01 -3.35477008e+01
 -3.35446329e+01 -3.35446329e+01 -2.45470620e+01 -2.45470620e+01
 -2.45424919e+01 -2.45424919e+01 -2.41010954e+01 -2.41010954e+01
 -2.40990963e+01 -2.40990963e+01 -2.40952238e+01 -2.40952238e+01
 -7.91571385e+00 -7.91571385e+00 -6.01905060e+00 -6.01905060e+00
 -5.59702626e+00 -5.59702626e+00 -5.59012663e+00 -5.59012663e+00
 -2.47511813e+00 -2.47511813e+00 -2.46244890e+00 -2.46244890e+00
 -2.40557484e+00 -2.40557484e+00 -2.39936839e+00 -2.39936839e+00
 -2.38889951e+00 -2.38889951e+00 -9.20670227e-01 -9.20670227e-01
 -4.94695490e-01 -4.94695490e-01 -4.21699944e-01 -4.21699944e-01
 -3.96270545e-01 -3.96270545e-01  8.12703086e-03  8.12703087e-03
  4.63203080e-01  4.63203080e-01  4.92323944e-01  4.92323944e-01
  5.30211637e-01  5.30211637e-01  5.34491593e-01  5.34491593e-01
  5.40836289e-01  5.40836289e-01  5.53540253e-01  5.53540253e-01
  5.58263906e-01  5.58263906e-01  5.64535928e-01  5.64535928e-01
  6.13931669e-01  6.13931669e-01  7.82212596e-01  7.82212596e-01
  1.51077975e+00  1.51077975e+00  1.51107050e+00  1.51107050e+00
  1.81796687e+00  1.81796688e+00  2.80901752e+00  2.80901752e+00
  2.82763097e+00  2.82763097e+00  2.84573573e+00  2.84573573e+00
  2.85169264e+00  2.85169264e+00  2.96579690e+00  2.96579690e+00
  4.39001000e+00  4.39001000e+00  4.68003482e+00  4.68003482e+00
  4.71490818e+00  4.71490818e+00  5.02096971e+00  5.02096971e+00
  9.94108823e+00  9.94108823e+00  9.95757577e+00  9.95757577e+00
  1.00452376e+01  1.00452376e+01  1.00496035e+01  1.00496035e+01
  1.01053292e+01  1.01053292e+01  2.24742953e+01  2.24742953e+01
  2.36966915e+01  2.36966915e+01  2.37175022e+01  2.37175022e+01
  2.85345259e+01  2.85345259e+01  2.99632907e+01  2.99632907e+01
  2.99827326e+01  2.99827326e+01  3.02472082e+01  3.02472082e+01
  3.02501130e+01  3.02501130e+01  3.02881179e+01  3.02881179e+01
  8.26431945e+01  8.26431945e+01  8.26609727e+01  8.26609727e+01
  8.34050470e+01  8.34050470e+01  8.34062556e+01  8.34062556e+01
  8.34351893e+01  8.34351893e+01  8.43261989e+01  8.43261989e+01
  8.82469778e+01  8.82469778e+01  8.82635771e+01  8.82635771e+01
  1.17195293e+02  1.17195293e+02  2.17268369e+02  2.17268369e+02
  2.17283376e+02  2.17283376e+02  2.19441253e+02  2.19441253e+02
  2.19441341e+02  2.19441341e+02  2.19464413e+02  2.19464413e+02
  2.67917419e+02  2.67917419e+02  2.79274203e+02  2.79274203e+02
  2.79287908e+02  2.79287908e+02  3.85340785e+02  3.85340785e+02
  5.69521958e+02  5.69521958e+02  5.69533770e+02  5.69533770e+02
  5.76548935e+02  5.76548935e+02  5.76549355e+02  5.76549355e+02
  5.76566781e+02  5.76566781e+02  7.71741539e+02  7.71741539e+02
  8.04264378e+02  8.04264378e+02  8.04275440e+02  8.04275440e+02
  1.11160866e+03  1.11160866e+03  1.56395403e+03  1.56395403e+03
  1.56396213e+03  1.56396213e+03  1.59077206e+03  1.59077206e+03
  1.59077235e+03  1.59077235e+03  1.59078422e+03  1.59078422e+03
  2.10293633e+03  2.10293633e+03  2.20177900e+03  2.20177900e+03
  2.20178728e+03  2.20178728e+03  2.88773165e+03  2.88773165e+03
  4.87620612e+03  4.87620612e+03  4.87621009e+03  4.87621009e+03
  5.02637279e+03  5.02637279e+03  5.02637294e+03  5.02637294e+03
  5.02637880e+03  5.02637880e+03  5.56207901e+03  5.56207901e+03
  5.88037565e+03  5.88037565e+03  5.88038110e+03  5.88038110e+03
  6.75906764e+03  6.75906764e+03  1.44317337e+04  1.44317337e+04
  1.44359132e+04  1.44359132e+04  1.54787410e+04  1.54787410e+04
  1.54787440e+04  1.54787440e+04  2.86416246e+04  2.86416246e+04
  3.76723232e+04  3.76723232e+04  4.11234312e+04  4.11234312e+04
  4.11234324e+04  4.11234324e+04  5.41307865e+04  5.41307865e+04
  9.99612411e+04  9.99612411e+04  1.07530474e+05  1.07530474e+05
  1.20604566e+05  1.20604566e+05  1.20604566e+05  1.20604566e+05
  1.84802110e+05  1.84802110e+05  3.49717150e+05  3.49717150e+05
  6.95617776e+05  6.95617776e+05  1.50634137e+06  1.50634137e+06]
Coulomb integral: (LL|LL) + (SS|LL)
    CPU time for vj and vk     87.65 sec, wall time      7.50 sec
E1 = -9792.1229741825  E_coul = 2661.3475031854
cycle= 2 E= -7116.7522749077  delta_E= -0.0367  |g|= 0.614  |ddm|= 0.806
    CPU time for cycle= 2     87.93 sec, wall time      7.70 sec
diis-norm(errvec)=1.25393
diis-c [-0.06984555+0.j  0.27190354+0.j  0.72809646+0.j]
HOMO 54 = -0.363832986675  LUMO 55 = 0.0222735187054
NES  mo_energy = [-2495408.94722976 -2495408.94722975 -1101192.98059011 -1101192.98059011
  -561279.81624402  -561279.81624402  -311315.66051412  -311315.66051412
  -227084.87585095  -227084.87585095  -208394.67008584  -208394.67008584
  -208394.66978014  -208394.66978014  -185677.51882367  -185677.51882367
  -118910.82765412  -118910.82765412  -102912.82537877  -102912.82537877
   -96995.0650142    -96995.0650142    -96995.06360517   -96995.06360517
   -82111.90880646   -82111.90880646   -63958.01065857   -63958.01065857
   -61529.43677153   -61529.43677153   -61177.39286885   -61177.39286885
   -61177.38909512   -61177.38909512   -50135.8057982    -50135.8057982
   -49014.05647904   -49014.05647904   -47502.56954045   -47502.56954045
   -47502.56243239   -47502.56243239   -46721.23383634   -46721.23383634
   -46721.22855644   -46721.22855644   -45640.88552761   -45640.88552761
   -45640.87871      -45640.87871      -45640.87656466   -45640.87656466
   -44019.79826481   -44019.79826481   -42807.38221336   -42807.38221336
   -41936.76183449   -41936.76183449   -41936.75146776   -41936.75146776
   -40953.09841973   -40953.09841973   -40953.08850257   -40953.08850257
   -40844.81799664   -40844.81799664   -40514.15948236   -40514.15948236
   -40514.14705916   -40514.14705916   -40514.14364016   -40514.14364016
   -40082.80794031   -40082.80794031   -39572.16692932   -39572.16692932
   -39572.1540468    -39572.1540468    -39229.37534302   -39229.37534302
   -39058.79359074   -39058.79359074   -39058.77990708   -39058.77990708
   -38827.1456086    -38827.1456086    -38827.12841291   -38827.12841291
   -38827.12404594   -38827.12404594   -38817.04069987   -38817.04069987
   -38517.23268053   -38517.23268053   -38517.21746172   -38517.21746172
   -38411.94485852   -38411.94485852   -38275.91726234   -38275.91726234
   -38275.89988149   -38275.89988149   -38197.51255872   -38197.51255872
   -38146.62825365   -38146.62825365   -38146.60604357   -38146.60604357
   -38146.59978369   -38146.59978369   -38023.06947409   -38023.06947409
   -38023.05103625   -38023.05103625   -37994.34937162   -37994.34937162
   -37914.27906673   -37914.27906673   -37914.25698409   -37914.25698409
   -37882.56209065   -37882.56209065   -37840.26448539   -37840.26448539
   -37840.23701207   -37840.23701207   -37840.22870446   -37840.22870446
   -37782.58739797   -37782.58739797   -37782.56526748   -37782.56526748
   -37775.88492781   -37775.88492781   -37735.62307137   -37735.62307137
   -37735.59551623   -37735.59551623   -37719.09947283   -37719.09947283
   -37694.37273713   -37694.37273713   -37694.33968474   -37694.33968474
   -37694.3292395    -37694.3292395    -37664.26466659   -37664.26466659
   -37664.23836218   -37664.23836218   -37662.35642984   -37662.35642984
   -37645.23504462   -37645.23504462   -37645.20150328   -37645.20150328
   -37634.98058665   -37634.98058665   -37622.58105779   -37622.58105779
   -37622.54045415   -37622.54045415   -37622.52586789   -37622.52586789
   -37605.68633011   -37605.68633011   -37605.65191289   -37605.65191289
   -37605.18260126   -37605.18260126   -37598.89460031   -37598.89460031
   -37598.85122088   -37598.85122088   -37591.83661047   -37591.83661047
   -37586.67925056   -37586.67925056   -37586.62937832   -37586.62937832
   -37586.61041073   -37586.61041073   -37576.91425529   -37576.91425529
   -37576.86675479   -37576.86675479   -37576.7490155    -37576.7490155
   -37575.37835522   -37575.37835522   -37575.32379352   -37575.32379352
   -37570.7321668    -37570.7321668    -37569.72540537   -37569.72540537
   -37569.66305875   -37569.66305875   -37569.63617409   -37569.63617409
   -37564.46519148   -37564.46519148   -37564.37855833   -37564.37855833
   -37564.36247018   -37564.36247018   -37564.29184588   -37564.29184588
   -37564.22291851   -37564.22291851   -37562.1758958    -37562.1758958
   -37562.07968426   -37562.07968426   -37562.03766665   -37562.03766665
   -37561.56922889   -37561.56922889   -37560.8535952    -37560.8535952
   -37560.22182251   -37560.22182251   -37559.96299064   -37559.96299064
   -37559.8670967    -37559.8670967    -37559.65511763   -37559.65511763
   -37559.63455305   -37559.63455305   -37559.42063792   -37559.42063792
   -37559.36964633   -37559.36964633   -37559.36491515   -37559.36491515
   -37558.97084742   -37558.97084742   -37558.88706071   -37558.88706071
   -37558.87109798   -37558.87109798   -37558.52008658   -37558.52008658
   -37558.2031551    -37558.2031551    -37558.05893594   -37558.05893594
   -37558.05624622   -37558.05624622   -37557.9710382    -37557.9710382 ]
PES  mo_energy = [-1.22611210e+03 -1.22611210e+03 -1.92984027e+02 -1.92984027e+02
 -1.80535849e+02 -1.80535849e+02 -1.69502867e+02 -1.69502867e+02
 -1.69502270e+02 -1.69502270e+02 -4.04721855e+01 -4.04721855e+01
 -3.52879333e+01 -3.52879333e+01 -3.31572340e+01 -3.31572340e+01
 -3.31540713e+01 -3.31540713e+01 -2.41353765e+01 -2.41353765e+01
 -2.41307394e+01 -2.41307394e+01 -2.36927649e+01 -2.36927649e+01
 -2.36907418e+01 -2.36907418e+01 -2.36868153e+01 -2.36868153e+01
 -7.72320296e+00 -7.72320296e+00 -5.83372966e+00 -5.83372966e+00
 -5.41804604e+00 -5.41804604e+00 -5.41067899e+00 -5.41067899e+00
 -2.31594904e+00 -2.31594904e+00 -2.30315613e+00 -2.30315613e+00
 -2.24896259e+00 -2.24896259e+00 -2.24265163e+00 -2.24265163e+00
 -2.23215641e+00 -2.23215641e+00 -8.78324378e-01 -8.78324377e-01
 -4.75843422e-01 -4.75843422e-01 -3.89405656e-01 -3.89405656e-01
 -3.63832987e-01 -3.63832987e-01  2.22735187e-02  2.22735187e-02
  4.83855667e-01  4.83855667e-01  5.16954132e-01  5.16954132e-01
  5.57183240e-01  5.57183240e-01  5.64808458e-01  5.64808458e-01
  5.68288600e-01  5.68288600e-01  5.85777093e-01  5.85777093e-01
  5.91099749e-01  5.91099749e-01  5.92099003e-01  5.92099003e-01
  6.29131313e-01  6.29131313e-01  7.97792031e-01  7.97792031e-01
  1.49908030e+00  1.49908030e+00  1.49937353e+00  1.49937353e+00
  1.81349779e+00  1.81349779e+00  2.88762192e+00  2.88762192e+00
  2.90562497e+00  2.90562497e+00  2.92517860e+00  2.92517860e+00
  2.93043409e+00  2.93043409e+00  3.04225414e+00  3.04225414e+00
  4.50798921e+00  4.50798921e+00  4.80150838e+00  4.80150838e+00
  4.83660073e+00  4.83660073e+00  5.14774937e+00  5.14774937e+00
  1.01033012e+01  1.01033012e+01  1.01197586e+01  1.01197586e+01
  1.02083539e+01  1.02083539e+01  1.02127400e+01  1.02127400e+01
  1.02679689e+01  1.02679689e+01  2.27246664e+01  2.27246664e+01
  2.39514664e+01  2.39514664e+01  2.39722637e+01  2.39722637e+01
  2.88058599e+01  2.88058599e+01  3.02323032e+01  3.02323032e+01
  3.02516180e+01  3.02516180e+01  3.05169163e+01  3.05169163e+01
  3.05198811e+01  3.05198811e+01  3.05576383e+01  3.05576383e+01
  8.30219839e+01  8.30219839e+01  8.30396629e+01  8.30396629e+01
  8.37840520e+01  8.37840520e+01  8.37853177e+01  8.37853177e+01
  8.38141163e+01  8.38141163e+01  8.47156420e+01  8.47156420e+01
  8.86409241e+01  8.86409241e+01  8.86574865e+01  8.86574865e+01
  1.17614733e+02  1.17614733e+02  2.17756923e+02  2.17756923e+02
  2.17771867e+02  2.17771867e+02  2.19929586e+02  2.19929586e+02
  2.19929713e+02  2.19929713e+02  2.19952710e+02  2.19952710e+02
  2.68439454e+02  2.68439454e+02  2.79799947e+02  2.79799947e+02
  2.79813618e+02  2.79813618e+02  3.85887983e+02  3.85887983e+02
  5.70113604e+02  5.70113604e+02  5.70125377e+02  5.70125377e+02
  5.77140045e+02  5.77140045e+02  5.77140439e+02  5.77140439e+02
  5.77157847e+02  5.77157847e+02  7.72366732e+02  7.72366732e+02
  8.04891657e+02  8.04891657e+02  8.04902695e+02  8.04902695e+02
  1.11224978e+03  1.11224978e+03  1.56462856e+03  1.56462856e+03
  1.56463664e+03  1.56463664e+03  1.59144584e+03  1.59144584e+03
  1.59144611e+03  1.59144611e+03  1.59145797e+03  1.59145797e+03
  2.10362975e+03  2.10362975e+03  2.20247313e+03  2.20247313e+03
  2.20248139e+03  2.20248139e+03  2.88843143e+03  2.88843143e+03
  4.87693755e+03  4.87693755e+03  4.87694150e+03  4.87694150e+03
  5.02710316e+03  5.02710316e+03  5.02710331e+03  5.02710331e+03
  5.02710915e+03  5.02710915e+03  5.56281336e+03  5.56281336e+03
  5.88110961e+03  5.88110961e+03  5.88111505e+03  5.88111505e+03
  6.75980056e+03  6.75980056e+03  1.44324846e+04  1.44324846e+04
  1.44366695e+04  1.44366695e+04  1.54794963e+04  1.54794963e+04
  1.54794992e+04  1.54794992e+04  2.86423853e+04  2.86423853e+04
  3.76730898e+04  3.76730898e+04  4.11241970e+04  4.11241970e+04
  4.11241982e+04  4.11241982e+04  5.41315526e+04  5.41315526e+04
  9.99620099e+04  9.99620099e+04  1.07531244e+05  1.07531244e+05
  1.20605335e+05  1.20605335e+05  1.20605336e+05  1.20605336e+05
  1.84802880e+05  1.84802880e+05  3.49717920e+05  3.49717920e+05
  6.95618547e+05  6.95618547e+05  1.50634214e+06  1.50634214e+06]
Coulomb integral: (LL|LL) + (SS|LL)
    CPU time for vj and vk     86.72 sec, wall time      7.34 sec
E1 = -9782.3527536221  E_coul = 2651.5610617348
cycle= 3 E= -7116.7684957979  delta_E= -0.0162  |g|= 0.0696  |ddm|=  0.4
    CPU time for cycle= 3     87.02 sec, wall time      7.57 sec
diis-norm(errvec)=0.136136
diis-c [-3.33911065e-04+0.j  2.99567645e-02+0.j  1.59557932e-01+0.j
  8.10485304e-01+0.j]
HOMO 54 = -0.370746900659  LUMO 55 = 0.0199431433735
NES  mo_energy = [-2495409.01798333 -2495409.01798333 -1101193.0513428  -1101193.0513428
  -561279.88699728  -561279.88699728  -311315.73127088  -311315.73127088
  -227084.94659877  -227084.94659877  -208394.74084478  -208394.74084478
  -208394.740539    -208394.740539    -185677.58959091  -185677.58959091
  -118910.8984454   -118910.8984454   -102912.89615551  -102912.89615551
   -96995.13581555   -96995.13581555   -96995.13440602   -96995.13440602
   -82111.97964332   -82111.97964332   -63958.08150234   -63958.08150234
   -61529.50768243   -61529.50768243   -61177.46377376   -61177.46377376
   -61177.45999832   -61177.45999832   -50135.87681164   -50135.87681164
   -49014.12743139   -49014.12743139   -47502.6406082    -47502.6406082
   -47502.63349648   -47502.63349648   -46721.30483602   -46721.30483602
   -46721.29955323   -46721.29955323   -45640.95668063   -45640.95668063
   -45640.94986118   -45640.94986118   -45640.94771201   -45640.94771201
   -44019.8693792    -44019.8693792    -42807.45327782   -42807.45327782
   -41936.8330192    -41936.8330192    -41936.82264717   -41936.82264717
   -40953.16954665   -40953.16954665   -40953.15962439   -40953.15962439
   -40844.88908716   -40844.88908716   -40514.23062372   -40514.23062372
   -40514.21819837   -40514.21819837   -40514.21477435   -40514.21477435
   -40082.8789578    -40082.8789578    -39572.23779755   -39572.23779755
   -39572.2249084    -39572.2249084    -39229.44598018   -39229.44598018
   -39058.86427374   -39058.86427374   -39058.85058307   -39058.85058307
   -38827.2154528    -38827.2154528    -38827.19825368   -38827.19825368
   -38827.19387791   -38827.19387791   -38817.11113913   -38817.11113913
   -38517.30204946   -38517.30204946   -38517.28681914   -38517.28681914
   -38412.01406302   -38412.01406302   -38275.98609062   -38275.98609062
   -38275.96869718   -38275.96869718   -38197.58124061   -38197.58124061
   -38146.69454147   -38146.69454147   -38146.67232297   -38146.67232297
   -38146.66604311   -38146.66604311   -38023.13532763   -38023.13532763
   -38023.11686708   -38023.11686708   -37994.41552916   -37994.41552916
   -37914.3439057    -37914.3439057    -37914.32179913   -37914.32179913
   -37882.62709876   -37882.62709876   -37840.32428778   -37840.32428778
   -37840.29680145   -37840.29680145   -37840.28846444   -37840.28846444
   -37782.64694697   -37782.64694697   -37782.62478422   -37782.62478422
   -37775.94568908   -37775.94568908   -37735.68137189   -37735.68137189
   -37735.65378292   -37735.65378292   -37719.15819273   -37719.15819273
   -37694.42443258   -37694.42443258   -37694.39136503   -37694.39136503
   -37694.38088422   -37694.38088422   -37664.31605369   -37664.31605369
   -37664.28971555   -37664.28971555   -37662.40936339   -37662.40936339
   -37645.28530269   -37645.28530269   -37645.25172112   -37645.25172112
   -37635.03118365   -37635.03118365   -37622.62452272   -37622.62452272
   -37622.58389944   -37622.58389944   -37622.56926131   -37622.56926131
   -37605.7290111    -37605.7290111    -37605.69457658   -37605.69457658
   -37605.22707258   -37605.22707258   -37598.93611333   -37598.93611333
   -37598.8926812    -37598.8926812    -37591.87790558   -37591.87790558
   -37586.71053508   -37586.71053508   -37586.66063933   -37586.66063933
   -37586.64161129   -37586.64161129   -37576.94325349   -37576.94325349
   -37576.89583676   -37576.89583676   -37576.78087658   -37576.78087658
   -37575.40738366   -37575.40738366   -37575.35276881   -37575.35276881
   -37570.75983537   -37570.75983537   -37569.74404056   -37569.74404056
   -37569.68167308   -37569.68167308   -37569.65472058   -37569.65472058
   -37564.48226578   -37564.48226578   -37564.39550875   -37564.39550875
   -37564.37822032   -37564.37822032   -37564.30792066   -37564.30792066
   -37564.24102445   -37564.24102445   -37562.18614363   -37562.18614363
   -37562.09006569   -37562.09006569   -37562.04794579   -37562.04794579
   -37561.5831049    -37561.5831049    -37560.84684009   -37560.84684009
   -37560.2209336    -37560.2209336    -37559.95646722   -37559.95646722
   -37559.86374663   -37559.86374663   -37559.661396     -37559.661396
   -37559.64233634   -37559.64233634   -37559.42677815   -37559.42677815
   -37559.37624577   -37559.37624577   -37559.37346058   -37559.37346058
   -37558.97321542   -37558.97321542   -37558.89018739   -37558.89018739
   -37558.87444252   -37558.87444252   -37558.5254941    -37558.5254941
   -37558.20271423   -37558.20271423   -37558.05996663   -37558.05996663
   -37558.05743717   -37558.05743717   -37557.97099453   -37557.97099453]
PES  mo_energy = [-1.22618342e+03 -1.22618342e+03 -1.93052526e+02 -1.93052526e+02
[...]
  8.04897086e+02  8.04897086e+02  8.04908118e+02  8.04908118e+02
  1.11230563e+03  1.11230563e+03  1.56472014e+03  1.56472014e+03
  1.56472820e+03  1.56472820e+03  1.59149951e+03  1.59149951e+03
  1.59149978e+03  1.59149978e+03  1.59151164e+03  1.59151164e+03
  2.10382135e+03  2.10382135e+03  2.20262306e+03  2.20262306e+03
  2.20263132e+03  2.20263132e+03  2.88868682e+03  2.88868682e+03
  4.87743115e+03  4.87743115e+03  4.87743509e+03  4.87743509e+03
  5.02750328e+03  5.02750328e+03  5.02750344e+03  5.02750344e+03
  5.02750928e+03  5.02750928e+03  5.56340466e+03  5.56340466e+03
  5.88164224e+03  5.88164224e+03  5.88164768e+03  5.88164768e+03
  6.76045078e+03  6.76045078e+03  1.44337228e+04  1.44337228e+04
  1.44379660e+04  1.44379660e+04  1.54807749e+04  1.54807749e+04
  1.54807779e+04  1.54807779e+04  2.86442746e+04  2.86442746e+04
  3.76751842e+04  3.76751842e+04  4.11263984e+04  4.11263984e+04
  4.11263996e+04  4.11263996e+04  5.41340013e+04  5.41340013e+04
  9.99648576e+04  9.99648576e+04  1.07533876e+05  1.07533876e+05
  1.20608237e+05  1.20608237e+05  1.20608237e+05  1.20608237e+05
  1.84805980e+05  1.84805980e+05  3.49721169e+05  3.49721169e+05
  6.95621881e+05  6.95621881e+05  1.50634552e+06  1.50634552e+06]
Coulomb integral: (LL|LL) + (SS|LL) + (SS|SS)
    CPU time for vj and vk    100.29 sec, wall time      8.53 sec
E1 = -9783.5107217177  E_coul = 2652.9371505653
cycle= 6 E= -7116.55037506302  delta_E= -2.33e-08  |g|= 7.47e-06  |ddm|= 0.00114
    CPU time for cycle= 6    100.57 sec, wall time      8.75 sec
diis-norm(errvec)=1.39782e-05
diis-c [-4.49755674e-11+0.j  7.93823971e-04+0.j  9.16351307e-03+0.j
  7.14609371e-02+0.j  1.16266073e-02+0.j -3.53335996e-01+0.j
  1.26029111e+00+0.j]
HOMO 54 = -0.370366488267  LUMO 55 = 0.0202097451458
NES  mo_energy = [-2495405.77591276 -2495405.77591276 -1101189.73465244 -1101189.73465244
  -561276.49961272  -561276.49961272  -311312.24550978  -311312.24550978
  -227080.94374935  -227080.94374935  -208391.11318152  -208391.11318152
  -208391.11287599  -208391.11287599  -185673.97898832  -185673.97898832
  -118907.16089512  -118907.16089512  -102908.61858488  -102908.61858488
   -96991.25742719   -96991.25742719   -96991.2560189    -96991.2560189
   -82108.17677016   -82108.17677016   -63953.61551952   -63953.61551952
   -61525.80545803   -61525.80545803   -61173.58088857   -61173.58088857
   -61173.57711627   -61173.57711627   -50132.52102046   -50132.52102046
   -49009.92003368   -49009.92003368   -47499.19760681   -47499.19760681
   -47499.19050017   -47499.19050017   -46717.2163512    -46717.2163512
   -46717.21106727   -46717.21106727   -45637.75798203   -45637.75798203
   -45637.75116348   -45637.75116348   -45637.74901691   -45637.74901691
   -44017.03217794   -44017.03217794   -42803.95445693   -42803.95445693
   -41934.10757437   -41934.10757437   -41934.09721336   -41934.09721336
   -40950.1692038    -40950.1692038    -40950.15927007   -40950.15927007
   -40842.54515516   -40842.54515516   -40512.00347763   -40512.00347763
   -40511.99105074   -40511.99105074   -40511.98762517   -40511.98762517
   -40080.195056     -40080.195056     -39570.22549017   -39570.22549017
   -39570.21262792   -39570.21262792   -39227.52114509   -39227.52114509
   -39056.78294353   -39056.78294353   -39056.76923387   -39056.76923387
   -38825.70054234   -38825.70054234   -38825.68333852   -38825.68333852
   -38825.67895523   -38825.67895523   -38815.1030918    -38815.1030918
   -38515.86817371   -38515.86817371   -38515.85297115   -38515.85297115
   -38410.52578857   -38410.52578857   -38274.54927116   -38274.54927116
   -38274.53185888   -38274.53185888   -38196.11704982   -38196.11704982
   -38145.65425504   -38145.65425504   -38145.63202632   -38145.63202632
   -38145.62572836   -38145.62572836   -38022.1185552    -38022.1185552
   -38022.10008326   -38022.10008326   -37993.33448477   -37993.33448477
   -37913.35170569   -37913.35170569   -37913.32957327   -37913.32957327
   -37881.60165934   -37881.60165934   -37839.60580268   -37839.60580268
   -37839.57830433   -37839.57830433   -37839.56994539   -37839.56994539
   -37781.930457     -37781.930457     -37781.908267     -37781.908267
   -37775.17333215   -37775.17333215   -37734.99230759   -37734.99230759
   -37734.9646831    -37734.9646831    -37718.44969225   -37718.44969225
   -37693.9254603    -37693.9254603    -37693.89238193   -37693.89238193
   -37693.88187939   -37693.88187939   -37663.82024268   -37663.82024268
   -37663.79389015   -37663.79389015   -37661.87068632   -37661.87068632
   -37644.80513324   -37644.80513324   -37644.7715125    -37644.7715125
   -37634.54262451   -37634.54262451   -37622.27705369   -37622.27705369
   -37622.23641963   -37622.23641963   -37622.22175314   -37622.22175314
   -37605.38944469   -37605.38944469   -37605.35502964   -37605.35502964
   -37604.85948992   -37604.85948992   -37598.60443543   -37598.60443543
   -37598.56096211   -37598.56096211   -37591.54889132   -37591.54889132
   -37586.47102578   -37586.47102578   -37586.42112411   -37586.42112411
   -37586.40206659   -37586.40206659   -37576.71631655   -37576.71631655
   -37576.66933725   -37576.66933725   -37576.53732232   -37576.53732232
   -37575.18105299   -37575.18105299   -37575.12636148   -37575.12636148
   -37570.54170812   -37570.54170812   -37569.58127923   -37569.58127923
   -37569.5189211    -37569.5189211    -37569.49193723   -37569.49193723
   -37564.32962242   -37564.32962242   -37564.24292262   -37564.24292262
   -37564.23162754   -37564.23162754   -37564.16170836   -37564.16170836
   -37564.083837     -37564.083837     -37562.07927169   -37562.07927169
   -37561.98270969   -37561.98270969   -37561.94043922   -37561.94043922
   -37561.45070255   -37561.45070255   -37560.79415611   -37560.79415611
   -37560.1548648    -37560.1548648    -37559.91172911   -37559.91172911
   -37559.81092805   -37559.81092805   -37559.57044701   -37559.57044701
   -37559.54707834   -37559.54707834   -37559.34021117   -37559.34021117
   -37559.29145894   -37559.29145894   -37559.28298153   -37559.28298153
   -37558.90770302   -37558.90770302   -37558.82479503   -37558.82479503
   -37558.80860755   -37558.80860755   -37558.44922582   -37558.44922582
   -37558.15411694   -37558.15411694   -37558.01316906   -37558.01316906
   -37558.01084677   -37558.01084677   -37557.92514555   -37557.92514555]
PES  mo_energy = [-1.22608528e+03 -1.22608528e+03 -1.93035200e+02 -1.93035200e+02
 -1.80580846e+02 -1.80580846e+02 -1.69561566e+02 -1.69561566e+02
 -1.69560980e+02 -1.69560980e+02 -4.05221448e+01 -4.05221448e+01
 -3.53374898e+01 -3.53374898e+01 -3.32086747e+01 -3.32086747e+01
 -3.32055184e+01 -3.32055184e+01 -2.41891826e+01 -2.41891826e+01
 -2.41845043e+01 -2.41845043e+01 -2.37479686e+01 -2.37479686e+01
 -2.37459281e+01 -2.37459281e+01 -2.37419734e+01 -2.37419734e+01
 -7.75369395e+00 -7.75369395e+00 -5.86312687e+00 -5.86312687e+00
 -5.44715336e+00 -5.44715336e+00 -5.43987969e+00 -5.43987969e+00
 -2.34253491e+00 -2.34253491e+00 -2.32967467e+00 -2.32967467e+00
 -2.27557158e+00 -2.27557158e+00 -2.26923214e+00 -2.26923214e+00
 -2.25869794e+00 -2.25869794e+00 -8.86055631e-01 -8.86055631e-01
 -4.79290934e-01 -4.79290934e-01 -3.95701676e-01 -3.95701676e-01
 -3.70366488e-01 -3.70366488e-01  2.02097451e-02  2.02097451e-02
  4.80768276e-01  4.80768276e-01  5.11962449e-01  5.11962449e-01
  5.52148256e-01  5.52148256e-01  5.58675750e-01  5.58675750e-01
  5.62863050e-01  5.62863050e-01  5.79386082e-01  5.79386082e-01
  5.84381359e-01  5.84381359e-01  5.86856289e-01  5.86856289e-01
  6.26910605e-01  6.26910605e-01  7.95084109e-01  7.95084109e-01
  1.50293414e+00  1.50293414e+00  1.50322452e+00  1.50322452e+00
  1.81581501e+00  1.81581501e+00  2.87371595e+00  2.87371595e+00
  2.89175869e+00  2.89175869e+00  2.91098731e+00  2.91098731e+00
  2.91638329e+00  2.91638329e+00  3.02856708e+00  3.02856708e+00
  4.48874387e+00  4.48874387e+00  4.78147984e+00  4.78147984e+00
  4.81653147e+00  4.81653147e+00  5.12727967e+00  5.12727967e+00
  1.00775952e+01  1.00775952e+01  1.00939423e+01  1.00939423e+01
  1.01820562e+01  1.01820562e+01  1.01864998e+01  1.01864998e+01
  1.02417355e+01  1.02417355e+01  2.26900401e+01  2.26900401e+01
  2.39150893e+01  2.39150893e+01  2.39358690e+01  2.39358690e+01
  2.87690146e+01  2.87690146e+01  3.01941739e+01  3.01941739e+01
  3.02134191e+01  3.02134191e+01  3.04776955e+01  3.04776955e+01
  3.04807152e+01  3.04807152e+01  3.05184194e+01  3.05184194e+01
  8.29757853e+01  8.29757853e+01  8.29934136e+01  8.29934136e+01
  8.37355822e+01  8.37355822e+01  8.37368884e+01  8.37368884e+01
  8.37656343e+01  8.37656343e+01  8.46740357e+01  8.46740357e+01
  8.85953248e+01  8.85953248e+01  8.86118692e+01  8.86118692e+01
  1.17572841e+02  1.17572841e+02  2.17712088e+02  2.17712088e+02
  2.17726996e+02  2.17726996e+02  2.19879419e+02  2.19879419e+02
  2.19879570e+02  2.19879570e+02  2.19902534e+02  2.19902534e+02
  2.68409782e+02  2.68409782e+02  2.79760899e+02  2.79760899e+02
  2.79774558e+02  2.79774558e+02  3.85865964e+02  3.85865964e+02
  5.70095107e+02  5.70095107e+02  5.70106857e+02  5.70106857e+02
  5.77107903e+02  5.77107903e+02  5.77108287e+02  5.77108287e+02
  5.77125692e+02  5.77125692e+02  7.72393038e+02  7.72393038e+02
  8.04897093e+02  8.04897093e+02  8.04908125e+02  8.04908125e+02
  1.11230564e+03  1.11230564e+03  1.56472014e+03  1.56472014e+03
  1.56472821e+03  1.56472821e+03  1.59149951e+03  1.59149951e+03
  1.59149978e+03  1.59149978e+03  1.59151165e+03  1.59151165e+03
  2.10382135e+03  2.10382135e+03  2.20262307e+03  2.20262307e+03
  2.20263132e+03  2.20263132e+03  2.88868683e+03  2.88868683e+03
  4.87743116e+03  4.87743116e+03  4.87743510e+03  4.87743510e+03
  5.02750329e+03  5.02750329e+03  5.02750345e+03  5.02750345e+03
  5.02750929e+03  5.02750929e+03  5.56340467e+03  5.56340467e+03
  5.88164225e+03  5.88164225e+03  5.88164769e+03  5.88164769e+03
  6.76045079e+03  6.76045079e+03  1.44337228e+04  1.44337228e+04
  1.44379661e+04  1.44379661e+04  1.54807749e+04  1.54807749e+04
  1.54807779e+04  1.54807779e+04  2.86442746e+04  2.86442746e+04
  3.76751842e+04  3.76751842e+04  4.11263984e+04  4.11263984e+04
  4.11263996e+04  4.11263996e+04  5.41340013e+04  5.41340013e+04
  9.99648576e+04  9.99648576e+04  1.07533876e+05  1.07533876e+05
  1.20608237e+05  1.20608237e+05  1.20608237e+05  1.20608237e+05
  1.84805980e+05  1.84805980e+05  3.49721169e+05  3.49721169e+05
  6.95621881e+05  6.95621881e+05  1.50634552e+06  1.50634552e+06]
Coulomb integral: (LL|LL) + (SS|LL) + (SS|SS)
    CPU time for vj and vk     71.83 sec, wall time      6.11 sec
E1 = -9783.5106081466  E_coul = 2652.9370369942
cycle= 7 E= -7116.55037506309  delta_E= -7e-11  |g|= 1.45e-06  |ddm|= 5.25e-05
    CPU time for cycle= 7     72.14 sec, wall time      6.34 sec
HOMO 54 = -0.370366640594  LUMO 55 = 0.020209575477
NES  mo_energy = [-2495405.77591437 -2495405.77591436 -1101189.73465406 -1101189.73465406
  -561276.49961433  -561276.49961433  -311312.24551139  -311312.24551139
  -227080.94375096  -227080.94375096  -208391.11318313  -208391.11318313
  -208391.11287759  -208391.11287759  -185673.97898992  -185673.97898992
  -118907.16089672  -118907.16089672  -102908.61858648  -102908.61858648
   -96991.25742878   -96991.25742878   -96991.25602049   -96991.25602049
   -82108.17677175   -82108.17677175   -63953.6155211    -63953.6155211
   -61525.80545959   -61525.80545959   -61173.58089013   -61173.58089013
   -61173.57711783   -61173.57711783   -50132.52102199   -50132.52102199
   -49009.92003522   -49009.92003522   -47499.19760832   -47499.19760832
   -47499.19050169   -47499.19050169   -46717.21635273   -46717.21635273
   -46717.2110688    -46717.2110688    -45637.75798352   -45637.75798352
   -45637.75116498   -45637.75116498   -45637.74901842   -45637.74901842
   -44017.03217943   -44017.03217943   -42803.95445843   -42803.95445843
   -41934.10757583   -41934.10757583   -41934.09721484   -41934.09721484
   -40950.16920527   -40950.16920527   -40950.15927155   -40950.15927155
   -40842.5451566    -40842.5451566    -40512.00347905   -40512.00347905
   -40511.99105216   -40511.99105216   -40511.98762661   -40511.98762661
   -40080.19505745   -40080.19505745   -39570.22549156   -39570.22549156
   -39570.21262933   -39570.21262933   -39227.52114647   -39227.52114647
   -39056.78294492   -39056.78294492   -39056.76923528   -39056.76923528
   -38825.70054366   -38825.70054366   -38825.68333985   -38825.68333985
   -38825.67895659   -38825.67895659   -38815.10309319   -38815.10309319
   -38515.86817502   -38515.86817502   -38515.85297249   -38515.85297249
   -38410.52578987   -38410.52578987   -38274.54927247   -38274.54927247
   -38274.53186022   -38274.53186022   -38196.11705114   -38196.11705114
   -38145.65425628   -38145.65425628   -38145.63202758   -38145.63202758
   -38145.62572967   -38145.62572967   -38022.11855644   -38022.11855644
   -38022.10008456   -38022.10008456   -37993.33448601   -37993.33448601
   -37913.35170693   -37913.35170693   -37913.32957456   -37913.32957456
   -37881.60166061   -37881.60166061   -37839.60580387   -37839.60580387
   -37839.57830554   -37839.57830554   -37839.56994666   -37839.56994666
   -37781.93045819   -37781.93045819   -37781.90826826   -37781.90826826
   -37775.17333335   -37775.17333335   -37734.99230877   -37734.99230877
   -37734.96468434   -37734.96468434   -37718.44969346   -37718.44969346
   -37693.92546141   -37693.92546141   -37693.89238307   -37693.89238307
   -37693.8818806    -37693.8818806    -37663.8202438    -37663.8202438
   -37663.79389134   -37663.79389134   -37661.87068751   -37661.87068751
   -37644.80513434   -37644.80513434   -37644.77151369   -37644.77151369
   -37634.54262564   -37634.54262564   -37622.27705471   -37622.27705471
   -37622.23642069   -37622.23642069   -37622.22175429   -37622.22175429
   -37605.38944569   -37605.38944569   -37605.35503076   -37605.35503076
   -37604.85949104   -37604.85949104   -37598.60443643   -37598.60443643
   -37598.56096322   -37598.56096322   -37591.54889235   -37591.54889235
   -37586.47102663   -37586.47102663   -37586.42112501   -37586.42112501
   -37586.40206758   -37586.40206758   -37576.71631731   -37576.71631731
   -37576.66933819   -37576.66933819   -37576.53732324   -37576.53732324
   -37575.18105382   -37575.18105382   -37575.12636242   -37575.12636242
   -37570.54170899   -37570.54170899   -37569.58127985   -37569.58127985
   -37569.51892179   -37569.51892179   -37569.49193804   -37569.49193804
   -37564.32962297   -37564.32962297   -37564.24292331   -37564.24292331
   -37564.23162798   -37564.23162798   -37564.16170911   -37564.16170911
   -37564.08383778   -37564.08383778   -37562.079272     -37562.079272
   -37561.98271008   -37561.98271008   -37561.94043977   -37561.94043977
   -37561.45070314   -37561.45070314   -37560.79415625   -37560.79415625
   -37560.15486483   -37560.15486483   -37559.91172928   -37559.91172928
   -37559.81092815   -37559.81092815   -37559.57044714   -37559.57044714
   -37559.54707875   -37559.54707875   -37559.34021105   -37559.34021105
   -37559.29145923   -37559.29145923   -37559.28298202   -37559.28298202
   -37558.90770299   -37558.90770299   -37558.82479507   -37558.82479507
   -37558.80860764   -37558.80860764   -37558.44922598   -37558.44922598
   -37558.1541166    -37558.1541166    -37558.01316901   -37558.01316901
   -37558.01084687   -37558.01084687   -37557.92514544   -37557.92514544]
PES  mo_energy = [-1.22608529e+03 -1.22608529e+03 -1.93035201e+02 -1.93035201e+02
 -1.80580848e+02 -1.80580848e+02 -1.69561567e+02 -1.69561567e+02
 -1.69560982e+02 -1.69560982e+02 -4.05221460e+01 -4.05221460e+01
 -3.53374910e+01 -3.53374910e+01 -3.32086759e+01 -3.32086759e+01
 -3.32055196e+01 -3.32055196e+01 -2.41891838e+01 -2.41891838e+01
 -2.41845055e+01 -2.41845055e+01 -2.37479698e+01 -2.37479698e+01
 -2.37459293e+01 -2.37459293e+01 -2.37419746e+01 -2.37419746e+01
 -7.75369487e+00 -7.75369487e+00 -5.86312778e+00 -5.86312778e+00
 -5.44715423e+00 -5.44715423e+00 -5.43988061e+00 -5.43988061e+00
 -2.34253571e+00 -2.34253571e+00 -2.32967556e+00 -2.32967556e+00
 -2.27557237e+00 -2.27557237e+00 -2.26923298e+00 -2.26923298e+00
 -2.25869885e+00 -2.25869885e+00 -8.86055906e-01 -8.86055906e-01
 -4.79291103e-01 -4.79291103e-01 -3.95701854e-01 -3.95701854e-01
 -3.70366641e-01 -3.70366641e-01  2.02095755e-02  2.02095755e-02
  4.80768099e-01  4.80768099e-01  5.11962169e-01  5.11962169e-01
  5.52148115e-01  5.52148115e-01  5.58675517e-01  5.58675518e-01
  5.62862830e-01  5.62862830e-01  5.79385850e-01  5.79385850e-01
  5.84381104e-01  5.84381104e-01  5.86856153e-01  5.86856153e-01
  6.26910514e-01  6.26910515e-01  7.95083947e-01  7.95083947e-01
  1.50293408e+00  1.50293408e+00  1.50322446e+00  1.50322446e+00
  1.81581493e+00  1.81581493e+00  2.87371541e+00  2.87371541e+00
  2.89175823e+00  2.89175823e+00  2.91098677e+00  2.91098677e+00
  2.91638282e+00  2.91638282e+00  3.02856665e+00  3.02856665e+00
  4.48874321e+00  4.48874321e+00  4.78147916e+00  4.78147916e+00
  4.81653081e+00  4.81653081e+00  5.12727907e+00  5.12727907e+00
  1.00775943e+01  1.00775943e+01  1.00939416e+01  1.00939416e+01
  1.01820554e+01  1.01820554e+01  1.01864989e+01  1.01864989e+01
  1.02417348e+01  1.02417348e+01  2.26900392e+01  2.26900392e+01
  2.39150883e+01  2.39150883e+01  2.39358681e+01  2.39358681e+01
  2.87690136e+01  2.87690136e+01  3.01941729e+01  3.01941729e+01
  3.02134181e+01  3.02134181e+01  3.04776945e+01  3.04776945e+01
  3.04807142e+01  3.04807142e+01  3.05184184e+01  3.05184184e+01
  8.29757841e+01  8.29757841e+01  8.29934125e+01  8.29934125e+01
  8.37355810e+01  8.37355810e+01  8.37368872e+01  8.37368872e+01
  8.37656332e+01  8.37656332e+01  8.46740345e+01  8.46740345e+01
  8.85953236e+01  8.85953236e+01  8.86118680e+01  8.86118680e+01
  1.17572840e+02  1.17572840e+02  2.17712087e+02  2.17712087e+02
  2.17726995e+02  2.17726995e+02  2.19879418e+02  2.19879418e+02
  2.19879569e+02  2.19879569e+02  2.19902532e+02  2.19902532e+02
  2.68409781e+02  2.68409781e+02  2.79760897e+02  2.79760897e+02
  2.79774557e+02  2.79774557e+02  3.85865962e+02  3.85865962e+02
  5.70095106e+02  5.70095106e+02  5.70106856e+02  5.70106856e+02
  5.77107901e+02  5.77107901e+02  5.77108286e+02  5.77108286e+02
  5.77125691e+02  5.77125691e+02  7.72393036e+02  7.72393036e+02
  8.04897091e+02  8.04897091e+02  8.04908124e+02  8.04908124e+02
  1.11230564e+03  1.11230564e+03  1.56472014e+03  1.56472014e+03
  1.56472821e+03  1.56472821e+03  1.59149951e+03  1.59149951e+03
  1.59149978e+03  1.59149978e+03  1.59151164e+03  1.59151164e+03
  2.10382135e+03  2.10382135e+03  2.20262306e+03  2.20262306e+03
  2.20263132e+03  2.20263132e+03  2.88868682e+03  2.88868682e+03
  4.87743115e+03  4.87743115e+03  4.87743510e+03  4.87743510e+03
  5.02750329e+03  5.02750329e+03  5.02750345e+03  5.02750345e+03
  5.02750928e+03  5.02750928e+03  5.56340467e+03  5.56340467e+03
  5.88164225e+03  5.88164225e+03  5.88164769e+03  5.88164769e+03
  6.76045078e+03  6.76045078e+03  1.44337228e+04  1.44337228e+04
  1.44379660e+04  1.44379660e+04  1.54807749e+04  1.54807749e+04
  1.54807779e+04  1.54807779e+04  2.86442746e+04  2.86442746e+04
  3.76751842e+04  3.76751842e+04  4.11263984e+04  4.11263984e+04
  4.11263996e+04  4.11263996e+04  5.41340013e+04  5.41340013e+04
  9.99648576e+04  9.99648576e+04  1.07533876e+05  1.07533876e+05
  1.20608237e+05  1.20608237e+05  1.20608237e+05  1.20608237e+05
  1.84805980e+05  1.84805980e+05  3.49721169e+05  3.49721169e+05
  6.95621881e+05  6.95621881e+05  1.50634552e+06  1.50634552e+06]
Coulomb integral: (LL|LL) + (SS|LL) + (SS|SS)
    CPU time for vj and vk     51.06 sec, wall time      4.36 sec
E1 = -9783.5106420052  E_coul = 2652.9370708527
Extra cycle  E= -7116.55037506315  delta_E= -5.73e-11  |g|= 7.86e-07  |ddm|= 5.23e-06
    CPU time for scf_cycle   1016.02 sec, wall time     87.87 sec
    CPU time for SCF   1571.37 sec, wall time    136.48 sec
converged SCF energy = -7116.55037506315
