[Molden Format]
made by pyscf v[2.1.0]
[Atoms] (AU)
Li   1   3     0.00000000000000     0.00000000000000     0.24937389229324
H   2   1     0.00000000000000     0.00000000000000    -3.19411384432337
[GTO]
1 0
 s    3 1.00
             16.119575    0.15432897034787
             2.9362007    0.53532814120666
             0.7946505    0.44463454100223
 s    3 1.00
             0.6362897  -0.099967229804707
             0.1478601    0.39951282921953
             0.0480887    0.70011546863228
 p    3 1.00
             0.6362897    0.15591626503748
             0.1478601    0.60768370065858
             0.0480887    0.39195737752474

2 0
 s    3 1.00
            3.42525091    0.15432897070298
            0.62391373    0.53532814243847
             0.1688554    0.44463454202535

[5d]
[7f]
[9g]

[MO]
 Sym= A
 Ene=               0
 Spin= Alpha
 Occup=    1.00000
   1      0.99167792692393
   2     0.032463390587535
   3    2.1649774211855e-18
   4    -3.0539081037425e-19
   5    0.0057710237458405
   6    -0.00039020630333633
 Sym= A
 Ene=               1
 Spin= Alpha
 Occup=    1.00000
   1     -0.15425681464961
   2      0.47378842490339
   3    -6.7381714516097e-17
   4    5.9132460780549e-17
   5     -0.33809960283967
   6      0.56530101611172
 Sym= A
 Ene=               2
 Spin= Alpha
 Occup=    0.00000
   1     -0.12057981367883
   2      0.34305073000761
   3    -1.3288219239974e-16
   4    -3.0642816619272e-16
   5       1.0033748633517
   6      0.43912477252238
 Sym= A
 Ene=               3
 Spin= Alpha
 Occup=    0.00000
   1    3.2282831613516e-17
   2    -1.8962632440767e-16
   3      0.78693474124655
   4      0.61703623314942
   5    4.2010461448984e-16
   6    3.1169050677719e-16
 Sym= A
 Ene=               4
 Spin= Alpha
 Occup=    0.00000
   1    1.1328173919214e-16
   2    -5.3651946934507e-16
   3     -0.61703623314943
   4      0.78693474124655
   5    5.8383135385823e-16
   6    6.2404527129617e-16
 Sym= A
 Ene=               5
 Spin= Alpha
 Occup=    0.00000
   1      0.20692370570093
   2     -0.95055493888694
   3    8.087663405923e-17
   4    -6.667345805519e-16
   5      0.45189586015557
   6      0.99485423226828
