

     ************************************************************************
     *************** Dalton - An Electronic Structure Program ***************
     ************************************************************************

    This is output from DALTON release Dalton2022.0-dev (2022)
         ( Web site: http://daltonprogram.org )

   ----------------------------------------------------------------------------

    NOTE:
     
    Dalton is an experimental code for the evaluation of molecular
    properties using (MC)SCF, DFT, CI, and CC wave functions.
    The authors accept no responsibility for the performance of
    the code or for the correctness of the results.
     
    The code (in whole or part) is provided under a licence and
    is not to be reproduced for further distribution without
    the written permission of the authors or their representatives.
     
    See the home page "http://daltonprogram.org" for further information.
     
    If results obtained with this code are published,
    the appropriate citations would be both of:
     
       K. Aidas, C. Angeli, K. L. Bak, V. Bakken,
       R. Bast, L. Boman, O. Christiansen, R. Cimiraglia,
       S. Coriani, P. Dahle, E. K. Dalskov, U. Ekstroem,
       T. Enevoldsen, J. J. Eriksen, P. Ettenhuber, B. Fernandez,
       L. Ferrighi, H. Fliegl, L. Frediani, K. Hald, A. Halkier,
       C. Haettig, H. Heiberg, T. Helgaker, A. C. Hennum,
       H. Hettema, E. Hjertenaes, S. Hoest, I.-M. Hoeyvik,
       M. F. Iozzi, B. Jansik, H. J. Aa. Jensen, D. Jonsson,
       P. Joergensen, J. Kauczor, S. Kirpekar,
       T. Kjaergaard, W. Klopper, S. Knecht, R. Kobayashi, H. Koch,
       J. Kongsted, A. Krapp, K. Kristensen, A. Ligabue,
       O. B. Lutnaes, J. I. Melo, K. V. Mikkelsen, R. H. Myhre,
       C. Neiss, C. B. Nielsen, P. Norman, J. Olsen,
       J. M. H. Olsen, A. Osted, M. J. Packer, F. Pawlowski,
       T. B. Pedersen, P. F. Provasi, S. Reine, Z. Rinkevicius,
       T. A. Ruden, K. Ruud, V. Rybkin, P. Salek, C. C. M. Samson,
       A. Sanchez de Meras, T. Saue, S. P. A. Sauer,
       B. Schimmelpfennig, K. Sneskov, A. H. Steindal,
       K. O. Sylvester-Hvid, P. R. Taylor, A. M. Teale,
       E. I. Tellgren, D. P. Tew, A. J. Thorvaldsen, L. Thoegersen,
       O. Vahtras, M. A. Watson, D. J. D. Wilson, M. Ziolkowski
       and H. Agren,
       "The Dalton quantum chemistry program system",
       WIREs Comput. Mol. Sci. 2014, 4:269–284 (doi: 10.1002/wcms.1172)
     
    and
     
       Dalton, a molecular electronic structure program,
       Release Dalton2022.0-dev (2022), see http://daltonprogram.org
   ----------------------------------------------------------------------------

    Authors in alphabetical order (Major contribution(s) in parenthesis):

  Kestutis Aidas,              Vilnius University,        Lithuania   (QM/MM)
  Celestino Angeli,            University of Ferrara,     Italy       (NEVPT2)
  Juan J. Aucar,               Northeast National UniversiArgentina   (LRESC, Relativistic Effects on EFG)
  Keld L. Bak,                 UNI-C,                     Denmark     (AOSOPPA, non-adiabatic coupling, magnetic properties)
  Vebjoern Bakken,             University of Oslo,        Norway      (DALTON; geometry optimizer, symmetry detection)
  Radovan Bast,                UiT The Arctic U. of NorwayNorway      (DALTON installation and execution frameworks)
  Pablo Baudin,                University of Valencia,    Spain       (Cholesky excitation energies)
  Linus Boman,                 NTNU,                      Norway      (Cholesky decomposition and subsystems)
  Bruno N. Cabral Tenorio,     Technical Univ. of Denmark,Denmark     (Lanczos-based CC methods)
  Ove Christiansen,            Aarhus University,         Denmark     (CC module)
  Renzo Cimiraglia,            University of Ferrara,     Italy       (NEVPT2)
  Sonia Coriani,               Technical Univ. of Denmark,Denmark     (CC and RESPONS modules)
  Janusz Cukras,               University of Warsaw,      Poland      (MChD in RESPONS)
  Paal Dahle,                  University of Oslo,        Norway      (Parallelization)
  Erik K. Dalskov,             UNI-C,                     Denmark     (SOPPA)
  Thomas Enevoldsen,           Univ. of Southern Denmark, Denmark     (SOPPA)
  Janus J. Eriksen,            Aarhus University,         Denmark     (Polarizable embedding, TDA)
  Rasmus Faber,                Technical Univ. of Denmark,Denmark     (Vib.avg. NMR w. SOPPA, parallel AO-SOPPA, CVS-CC and EOMCC)
  Tobias Fahleson,             KTH Stockholm,             Sweden      (Damped cubic response)
  Berta Fernandez,             U. of Santiago de CompostelSpain       (Doublet spin, ESR in RESPONS)
  Lara Ferrighi,               Aarhus University,         Denmark     (PCM Cubic response)
  Heike Fliegl,                University of Oslo,        Norway      (CCSD(R12))
  Luca Frediani,               UiT The Arctic U. of NorwayNorway      (PCM)
  Emmanuel Fromager,           Univ. Strasbourg,          France      (MC-srDFT)
  Bin Gao,                     UiT The Arctic U. of NorwayNorway      (Gen1Int library)
  Andre S. P. Gomes,           CNRS/Universite de Lille,  France      (Frozen density embedding)
  Christof Haettig,            Ruhr-University Bochum,    Germany     (CC module)
  Kasper Hald,                 Aarhus University,         Denmark     (CC module)
  Asger Halkier,               Aarhus University,         Denmark     (CC module)
  Frederik Beyer Hansen,       University of Copenhagen,  Denmark     (Parallel AO-SOPPA)
  Erik D. Hedegaard,           Univ. of Southern Denmark, Denmark     (Polarizable embedding, QM/MM, and MC-srDFT)
  Hanne Heiberg,               University of Oslo,        Norway      (Geometry analysis, selected one-electron integrals)
  Trygve Helgaker,             University of Oslo,        Norway      (DALTON; ABACUS, ERI, DFT modules, London, and much more)
  Alf Christian Hennum,        University of Oslo,        Norway      (Parity violation)
  Hinne Hettema,               University of Auckland,    New Zealand (Quadratic response in RESPONS; SIRIUS supersymmetry)
  Andreas E. Hillers-Bendtsen, University of Copenhagen,  Denmark     (MP3)
  Eirik Hjertenaes,            NTNU,                      Norway      (Cholesky decomposition)
  Nicolai Machholdt Hoeyer,    Aarhus University,         Denmark     (MP3)
  Pi A. B. Haase,              University of Copenhagen,  Denmark     (Triplet AO-SOPPA)
  Maria Francesca Iozzi,       University of Oslo,        Norway      (RPA)
  Christoph Jacob              TU Braunschweig            Germany     (Frozen density embedding)
  Brano Jansik                 Technical Univ. of Ostrava Czech Rep.  (DFT cubic response)
  Hans Joergen Aa. Jensen,     Univ. of Southern Denmark, Denmark     (DALTON; SIRIUS, RESPONS, ABACUS, MC-srDFT, and much more)
  Dan Jonsson,                 UiT The Arctic U. of NorwayNorway      (Cubic response in RESPONS module)
  Poul Joergensen,             Aarhus University,         Denmark     (RESPONS, ABACUS, and CC modules)
  Maciej Kaminski,             University of Warsaw,      Poland      (CPPh in RESPONS)
  Joanna Kauczor,              Linkoeping University,     Sweden      (Complex polarization propagator (CPP) module)
  Sheela Kirpekar,             Univ. of Southern Denmark, Denmark     (Mass-velocity & Darwin integrals)
  Frederik Oersted Kjeldal,    Technical Univ. of Denmark,Denmark     (MP3)
  Erik Kjellgren,              Univ. of Southern Denmark, Denmark     (MC-srDFT)
  Wim Klopper,                 KIT Karlsruhe,             Germany     (R12 code in CC, SIRIUS, and ABACUS modules)
  Stefan Knecht,               ETH Zurich,                Switzerland (Parallel CI and MCSCF, MC-srDFT)
  Rika Kobayashi,              Australian National Univ., Australia   (DIIS in CC, London in MCSCF)
  Henrik Koch,                 NTNU,                      Norway      (CC module, Cholesky decomposition)
  Jacob Kongsted,              Univ. of Southern Denmark, Denmark     (Polarizable embedding, polarizable density embedding, QM/MM)
  Andrea Ligabue,              University of Modena,      Italy       (CTOCD, AOSOPPA)
  Nanna H. List                Univ. of Southern Denmark, Denmark     (Polarizable embedding)
  Ola B. Lutnaes,              University of Oslo,        Norway      (DFT Hessian)
  Juan I. Melo,                University of Buenos Aires,Argentina   (LRESC, Relativistic Effects on NMR Shieldings)
  Kurt V. Mikkelsen,           University of Copenhagen,  Denmark     (MC-SCRF, QM/MM, and MP3)
  Rolf H. Myhre,               NTNU,                      Norway      (Subsystems and CC3)
  Christian Neiss,             Univ. Erlangen-Nuernberg,  Germany     (CCSD(R12))
  Christian B. Nielsen,        University of Copenhagen,  Denmark     (QM/MM)
  Patrick Norman,              KTH Stockholm,             Sweden      (Cubic response and complex frequency response in RESPONS)
  Jeppe Olsen,                 Aarhus University,         Denmark     (SIRIUS CI/density modules)
  Jogvan Magnus H. Olsen,      Aarhus University,         Denmark     (Polarizable embedding and polarizable density embedding)
  Anders Osted,                Copenhagen University,     Denmark     (QM/MM)
  Martin J. Packer,            University of Sheffield,   UK          (SOPPA)
  Filip Pawlowski,             Kazimierz Wielki UniversityPoland      (CC3)
  Morten N. Pedersen,          Univ. of Southern Denmark, Denmark     (Polarizable embedding)
  Thomas B. Pedersen,          University of Oslo,        Norway      (Cholesky decomposition)
  Patricio F. Provasi,         University of Northeastern,Argentina   (Analysis of coupling constants in localized orbitals)
  Peter Reinholdt,             Univ. of Southern Denmark, Denmark     (Polarizable embedding and polarizable density embedding)
  Zilvinas Rinkevicius,        KTH Stockholm,             Sweden      (open-shell DFT, ESR)
  Elias Rudberg,               KTH Stockholm,             Sweden      (DFT grid and basis info)
  Torgeir A. Ruden,            University of Oslo,        Norway      (Numerical derivatives in ABACUS)
  Kenneth Ruud,                UiT The Arctic U. of NorwayNorway      (DALTON; ABACUS magnetic properties and much more)
  Pawel Salek,                 KTH Stockholm,             Sweden      (DALTON; DFT code)
  Claire C. M. Samson          University of Karlsruhe    Germany     (Boys localization, r12 integrals in ERI)
  Alfredo Sanchez de Meras,    University of Valencia,    Spain       (CC module, Cholesky decomposition)
  Trond Saue,                  Paul Sabatier University,  France      (direct Fock matrix construction)
  Stephan P. A. Sauer,         University of Copenhagen,  Denmark     (SOPPA(CCSD), SOPPA prop., AOSOPPA, vibrational g-factors)
  Bernd Schimmelpfennig,       Forschungszentrum KarlsruheGermany     (AMFI module)
  Anna K. Schnack-Petersen,    University of Copenhagen,  Denmark     (RPA(D) and HRPA(D) properties in AOSOPPA)
  Kristian Sneskov,            Aarhus University,         Denmark     (Polarizable embedding, QM/MM)
  Arnfinn H. Steindal,         UiT The Arctic U. of NorwayNorway      (parallel QM/MM, polarizable embedding)
  Casper Steinmann,            Aalborg University,        Denmark     (QFIT, polarizable embedding)
  K. O. Sylvester-Hvid,        University of Copenhagen,  Denmark     (MC-SCRF)
  Peter R. Taylor,             VLSCI/Univ. of Melbourne,  Australia   (Symmetry handling ABACUS, integral transformation)
  Andrew M. Teale,             University of Nottingham,  England     (DFT-AC, DFT-D)
  David P. Tew,                University of Bristol,     England     (CCSD(R12))
  Julien Toulouse,             Sorbonne Univ.,            France      (MC-srDFT)
  Olav Vahtras,                KTH Stockholm,             Sweden      (Triplet response, spin-orbit, ESR, TDDFT, open-shell DFT)
  Lucas Visscher,              Vrije Universiteit AmsterdaNetherlands (Frozen density embedding)
  David J. Wilson,             La Trobe University,       Australia   (DFT Hessian and DFT magnetizabilities)
  Luna Zamok,                  University of Copenhagen,  Denmark     (Block Lanczos RPA solver in SOPPA module)
  Hans Agren,                  KTH Stockholm,             Sweden      (SIRIUS module, RESPONS, MC-SCRF solvation)
 --------------------------------------------------------------------------------

     Date and time (Linux)  : Thu Jun 22 08:31:59 2023
     Host name              : fer                                     

 * Work memory size             :    64000000 =  488.28 megabytes.

 * Directories for basis set searches:
   1) /home/fer/pyPPmethods/Dalton_outputs
   2) /home/fer/dalton/build/basis


Compilation information
-----------------------

 Who compiled             | fer
 Host                     | fer
 System                   | Linux-5.15.0-33-generic
 CMake generator          | Unix Makefiles
 Processor                | x86_64
 64-bit integers          | OFF
 MPI                      | OFF
 Fortran compiler         | /usr/bin/gfortran
 Fortran compiler version | GNU Fortran (Ubuntu 11.2.0-19ubuntu1) 11.2.0
 C compiler               | /usr/bin/gcc
 C compiler version       | gcc (Ubuntu 11.2.0-19ubuntu1) 11.2.0
 C++ compiler             | /usr/bin/g++
 C++ compiler version     | g++ (Ubuntu 11.2.0-19ubuntu1) 11.2.0
 BLAS                     | /usr/lib/x86_64-linux-gnu/libblas.so
 LAPACK                   | /usr/lib/x86_64-linux-gnu/liblapack.so
 Static linking           | OFF
 Last Git revision        | 07292fe2d2f7d5349434b1d9c2de3151ddb86ccb
 Git branch               | master
 Configuration time       | 2022-06-01 21:36:30.754329


   Content of the .dal input file
 ----------------------------------

**DALTON INPUT
.RUN RESPONSE
**INTEGRALS
.FC
**WAVE FUNCTIONS
.HF
.MP2
**RESPONSE
.HIRPA
.TRPFLG
*LINEAR
.PROPRT
FC H 001
.PROPRT
FC F 002
.PRINT
 32
**END OF DALTON INPUT


   Content of the .mol file
 ----------------------------

BASIS
cc-pVTZ
         h2o Vertical Excitation Energies
         aug-cc-pVDZ
Angstrom Atomtypes=2
Charge=1.0 Atoms=1
H     0.0000000000    0.0000000000    -1.6902522555
Charge=9.0 Atoms=1
F     0.0000000000    0.0000000000     0.1319629808


       *******************************************************************
       *********** Output from DALTON general input processing ***********
       *******************************************************************

 --------------------------------------------------------------------------------
   Overall default print level:    0
   Print level for DALTON.STAT:    1

    HERMIT 1- and 2-electron integral sections will be executed
    "Old" integral transformation used (limited to max 255 basis functions)
    Wave function sections will be executed (SIRIUS module)
    Dynamic molecular response properties section will be executed (RESPONSE module)
 --------------------------------------------------------------------------------


   ****************************************************************************
   *************** Output of molecule and basis set information ***************
   ****************************************************************************


    The two title cards from your ".mol" input:
    ------------------------------------------------------------------------
 1:          h2o Vertical Excitation Energies                               
 2:          aug-cc-pVDZ                                                    
    ------------------------------------------------------------------------

  Coordinates are entered in Angstrom and converted to atomic units.
          - Conversion factor : 1 bohr = 0.52917721 A

  Atomic type no.    1
  --------------------
  Nuclear charge:   1.00000
  Number of symmetry independent centers:    1
  Number of basis sets to read;    2
  Basis set file used for this atomic type with Z =   1 :
     "/home/fer/dalton/build/basis/cc-pVTZ"

  Atomic type no.    2
  --------------------
  Nuclear charge:   9.00000
  Number of symmetry independent centers:    1
  Number of basis sets to read;    2
  Basis set file used for this atomic type with Z =   9 :
     "/home/fer/dalton/build/basis/cc-pVTZ"


                      SYMADD: Requested addition of symmetry
                      --------------------------------------

 Symmetry test threshold:  5.00E-06

@  The molecule has been centered at center of mass and rotated
@  so the principal axes of inertia are along coordinate axes.

 Symmetry class found: C(oo,v)        

 Symmetry Independent Centres             
 ----------------------------
F      9 :      0.00000000     0.00000000     0.17346763  Isotope  1
H      1 :      0.00000000     0.00000000    -3.27002010  Isotope  1

 The following symmetry elements were found:   X  Y     


                         SYMGRP: Point group information
                         -------------------------------

@    Full point group is: C(oo,v)        
@    Represented as:      C2v

@  * The irrep name for each symmetry:    1: A1     2: B1     3: B2     4: A2 

   * The point group was generated by:

      Reflection in the yz-plane
      Reflection in the xz-plane

   * Group multiplication table

        |  E   C2z  Oxz  Oyz
   -----+--------------------
     E  |  E   C2z  Oxz  Oyz
    C2z | C2z   E   Oyz  Oxz
    Oxz | Oxz  Oyz   E   C2z
    Oyz | Oyz  Oxz  C2z   E 

   * Character table

        |  E   C2z  Oxz  Oyz
   -----+--------------------
    A1  |   1    1    1    1
    B1  |   1   -1    1   -1
    B2  |   1   -1   -1    1
    A2  |   1    1   -1   -1

   * Direct product table

        | A1   B1   B2   A2 
   -----+--------------------
    A1  | A1   B1   B2   A2 
    B1  | B1   A1   A2   B2 
    B2  | B2   A2   A1   B1 
    A2  | A2   B2   B1   A1 


                                 Isotopic Masses
                                 ---------------

                           H           1.007825
                           F          18.998403

                       Total mass:    20.006228 amu
                       Natural abundance:  99.985 %

 Center-of-mass coordinates (a.u.):    0.000000    0.000000    0.000000
 Center-of-mass coordinates (Angs):    0.000000    0.000000    0.000000


  Atoms and basis sets
  --------------------

  Number of atom types :    2
  Total number of atoms:    2

  Basis set used is "cc-pVTZ" from the basis set library.

  label    atoms   charge   prim   cont     basis
  ----------------------------------------------------------------------
  H           1    1.0000    16    14      [5s2p1d|3s2p1d]                                    
  F           1    9.0000    42    30      [10s5p2d1f|4s3p2d1f]                               
  ----------------------------------------------------------------------
  total:      2   10.0000    58    44
  ----------------------------------------------------------------------
  Spherical harmonic basis used.

  Threshold for neglecting AO integrals:  1.00D-12


  Cartesian Coordinates (a.u.)
  ----------------------------

  Total number of coordinates:    6
  H       :     1  x   0.0000000000    2  y   0.0000000000    3  z  -3.2700201038
  F       :     4  x   0.0000000000    5  y   0.0000000000    6  z   0.1734676336


  Symmetry Coordinates
  --------------------

  Number of coordinates in each symmetry:     2    2    2    0

  Symmetry  A1  ( 1)

    1   H     z    3
    2   F     z    6

  Symmetry  B1  ( 2)

    3   H     x    1
    4   F     x    4

  Symmetry  B2  ( 3)

    5   H     y    2
    6   F     y    5


   Interatomic separations (in Angstrom):
   --------------------------------------

            H           F     
            ------      ------
 H     :    0.000000
 F     :    1.822215    0.000000


  Max    interatomic separation is    1.8222 Angstrom (    3.4435 Bohr)
  between atoms    2 and    1, "F     " and "H     ".

  Min HX interatomic separation is    1.8222 Angstrom (    3.4435 Bohr)


  Bond distances (Angstrom):
  --------------------------

                  atom 1     atom 2       distance
                  ------     ------       --------




 Principal moments of inertia (u*A**2) and principal axes
 --------------------------------------------------------

   IA       0.000000          0.000000    0.000000    1.000000
   IB       3.177872          0.000000    1.000000    0.000000
   IC       3.177872          1.000000    0.000000    0.000000


 Rotational constants
 --------------------

@    The molecule is linear.

               B =       159030.65 MHz     (    5.304692 cm-1)


@  Nuclear repulsion energy :    2.613629170871 Hartree


  Symmetry Orbitals
  -----------------

  Number of orbitals in each symmetry:          20   10   10    4


  Symmetry  A1 ( 1)

    1     H        1s         1
    2     H        1s         2
    3     H        1s         3
    4     H        2pz        6
    5     H        2pz        9
    6     H        3d0       12
    7     H        3d2+      14
    8     F        1s        15
    9     F        1s        16
   10     F        1s        17
   11     F        1s        18
   12     F        2pz       21
   13     F        2pz       24
   14     F        2pz       27
   15     F        3d0       30
   16     F        3d2+      32
   17     F        3d0       35
   18     F        3d2+      37
   19     F        4f0       41
   20     F        4f2+      43


  Symmetry  B1 ( 2)

   21     H        2px        4
   22     H        2px        7
   23     H        3d1+      13
   24     F        2px       19
   25     F        2px       22
   26     F        2px       25
   27     F        3d1+      31
   28     F        3d1+      36
   29     F        4f1+      42
   30     F        4f3+      44


  Symmetry  B2 ( 3)

   31     H        2py        5
   32     H        2py        8
   33     H        3d1-      11
   34     F        2py       20
   35     F        2py       23
   36     F        2py       26
   37     F        3d1-      29
   38     F        3d1-      34
   39     F        4f3-      38
   40     F        4f1-      40


  Symmetry  A2 ( 4)

   41     H        3d2-      10
   42     F        3d2-      28
   43     F        3d2-      33
   44     F        4f2-      39

  Symmetries of electric field:  B1 (2)  B2 (3)  A1 (1)

  Symmetries of magnetic field:  B2 (3)  B1 (2)  A2 (4)


                     .---------------------------------------.
                     | Starting in Integral Section (HERMIT) |
                     `---------------------------------------'



 ***************************************************************************************
 ****************** Output from **INTEGRALS input processing (HERMIT) ******************
 ***************************************************************************************



    *************************************************************************
    ****************** Output from HERMIT input processing ******************
    *************************************************************************


 Default print level:        1

 Calculation of one- and two-electron Hamiltonian integrals.

 The following one-electron property integrals are calculated as requested:
          - overlap integrals
          - Fermi contact integrals
            (Dirac delta function integrals)

 Center of mass  (bohr):      0.000000000000      0.000000000000      0.000000000000
 Operator center (bohr):      0.000000000000      0.000000000000      0.000000000000
 Gauge origin    (bohr):      0.000000000000      0.000000000000      0.000000000000
 Dipole origin   (bohr):      0.000000000000      0.000000000000      0.000000000000

 Integrals for all indirect spin-spin coupling and/or shielding tensors are calculated.

Calculation of 2-electron integrals are postponed until they are needed.


     ************************************************************************
     ************************** Output from HERINT **************************
     ************************************************************************



                      Nuclear contribution to dipole moments
                      --------------------------------------

                 au               Debye          C m (/(10**-30)

      z     -1.70881140        -4.34336507       -14.48790639


  Total CPU  time used in HERMIT:   0.01 seconds
  Total wall time used in HERMIT:   0.01 seconds


                        .----------------------------------.
                        | End of Integral Section (HERMIT) |
                        `----------------------------------'



                   .--------------------------------------------.
                   | Starting in Wave Function Section (SIRIUS) |
                   `--------------------------------------------'


 *** Output from Huckel module :

     Using EWMO model:          T
     Using EHT  model:          F
     Number of Huckel orbitals each symmetry:    4    1    1    0

 EWMO - Energy Weighted Maximum Overlap - is a Huckel type method,
        which normally is better than Extended Huckel Theory.
 Reference: Linderberg and Ohrn, Propagators in Quantum Chemistry (Wiley, 1973)

 Huckel EWMO eigenvalues for symmetry :  1
          -26.382748      -1.584040      -0.770302      -0.448110

 Huckel EWMO eigenvalues for symmetry :  2
           -0.730000

 Huckel EWMO eigenvalues for symmetry :  3
           -0.730000

 **********************************************************************
 *SIRIUS* a direct, restricted step, second order MCSCF program       *
 **********************************************************************

 
     Date and time (Linux)  : Thu Jun 22 08:31:59 2023
     Host name              : fer                                     

 Title lines from ".mol" input file:
              h2o Vertical Excitation Energies                               
              aug-cc-pVDZ                                                    

 Print level on unit LUPRI =   2 is   0
 Print level on unit LUW4  =   2 is   5

@    MP2, closed-shell Moeller-Plesset second-order calculation.

@    This is a combination run starting with
@              a restricted, closed shell Hartree-Fock calculation


 Initial molecular orbitals are obtained according to
 ".MOSTART EWMO  " input option

     Wave function specification
     ============================
@    Wave function type        --- MP2 ---
@    Number of closed shell electrons          10
@    Number of electrons in active shells       0
@    Total charge of the molecule               0

@    Spin multiplicity and 2 M_S                1         0
@    Total number of symmetries                 4 (point group: C2v)
@    Reference state symmetry                   1 (irrep name : A1 )

     Orbital specifications
     ======================
@    Abelian symmetry species          All |    1    2    3    4
@                                          |  A1   B1   B2   A2 
                                       --- |  ---  ---  ---  ---
@    Total number of orbitals           44 |   20   10   10    4
@    Number of basis functions          44 |   20   10   10    4

      ** Automatic occupation of RHF orbitals **

      -- Initial occupation of symmetries is determined from extended Huckel guess.           
      -- Initial occupation of symmetries is :
@    Occupied SCF orbitals               5 |    3    1    1    0

     Maximum number of Fock   iterations      0
     Maximum number of DIIS   iterations     60
     Maximum number of QC-SCF iterations     60
     Threshold for SCF convergence     1.00D-06


 ***********************************************
 ***** DIIS acceleration of SCF iterations *****
 ***********************************************

 C1-DIIS algorithm; max error vectors =    8

 Automatic occupation of symmetries with  10 electrons.

 Iter     Total energy    Error norm  Delta(E)    SCF occupation
 -----------------------------------------------------------------------------

Calculating AOSUPINT

---> (Re)generating AOTWOINT


     ************************************************************************
     ************************** Output from HERINT **************************
     ************************************************************************


 Threshold for neglecting two-electron integrals:  1.00D-12
 HERMIT - Number of two-electron integrals written:       96284 ( 19.6% )
 HERMIT - Megabytes written:                              1.106

     (Precalculated AO two-electron integrals are transformed to P-supermatrix elements.
      Threshold for discarding integrals :  1.00D-12 )
@  1  -99.7474544802       1.54D+00  -9.97D+01     3   1   1   0
      Virial theorem: -V/T =      1.978856
@    MULPOP   H       0.71; F      -0.71; 
   1  Level shift: doubly occupied orbital energies shifted by -2.00D-01
 -----------------------------------------------------------------------------
@  2  -99.7976335331       9.82D-01  -5.02D-02     3   1   1   0
      Virial theorem: -V/T =      2.020691
@    MULPOP   H       0.42; F      -0.42; 
   2  Level shift: doubly occupied orbital energies shifted by -2.00D-01
 -----------------------------------------------------------------------------
@  3  -99.8278616551       1.43D-01  -3.02D-02     3   1   1   0
      Virial theorem: -V/T =      2.005374
@    MULPOP   H       0.46; F      -0.46; 
   3  Level shift: doubly occupied orbital energies shifted by -5.00D-02
 -----------------------------------------------------------------------------
@  4  -99.8294696139       3.34D-02  -1.61D-03     3   1   1   0
      Virial theorem: -V/T =      2.003694
@    MULPOP   H       0.44; F      -0.44; 
   4  Level shift: doubly occupied orbital energies shifted by -1.25D-02
 -----------------------------------------------------------------------------
@  5  -99.8296497137       1.42D-02  -1.80D-04     3   1   1   0
      Virial theorem: -V/T =      2.003652
@    MULPOP   H       0.42; F      -0.42; 
 -----------------------------------------------------------------------------
@  6  -99.8296675276       8.06D-04  -1.78D-05     3   1   1   0
      Virial theorem: -V/T =      2.003464
@    MULPOP   H       0.41; F      -0.41; 
 -----------------------------------------------------------------------------
@  7  -99.8296676104       9.98D-05  -8.28D-08     3   1   1   0
      Virial theorem: -V/T =      2.003460
@    MULPOP   H       0.41; F      -0.41; 
 -----------------------------------------------------------------------------
@  8  -99.8296676112       8.12D-06  -7.77D-10     3   1   1   0
      Virial theorem: -V/T =      2.003460
@    MULPOP   H       0.41; F      -0.41; 
 -----------------------------------------------------------------------------
@  9  -99.8296676112       2.50D-06  -5.85D-12     3   1   1   0
      Virial theorem: -V/T =      2.003460
@    MULPOP   H       0.41; F      -0.41; 
 -----------------------------------------------------------------------------
@ 10  -99.8296676112       3.22D-07  -2.42D-13     3   1   1   0

@ *** DIIS converged in  10 iterations !
@     Converged SCF energy, gradient:    -99.829667611214    3.22D-07
    - total time used in SIRFCK :              0.00 seconds

 --- Writing SIRIFC interface file

--------------------------------------------------------------------------------


     .--------------------------------------------------.
     | HF-SCF KT IPs [a.u. & eV] from Koopmans' theorem |
     `--------------------------------------------------'


     HF-SCF KT symmetry 1 ( A1 ) in point group C2v -- 3 principal poles with pole strength 1

   ============  ============  ============
      26.265862      1.467889      0.515241
     714.730455     39.943299     14.020418
   ============  ============  ============

     HF-SCF KT symmetry 2 ( B1 ) in point group C2v -- 1 principal poles with pole strength 1

   ============
       0.587571
      15.988611
   ============

     HF-SCF KT symmetry 3 ( B2 ) in point group C2v -- 1 principal poles with pole strength 1

   ============
       0.587571
      15.988611
   ============

@ Summary of HF-SCF KT ionization potentials [eV]:

@ Symmetry 1 (A1 ) :   714.730      39.943      14.020

@ Symmetry 2 (B1 ) :    15.989

@ Symmetry 3 (B2 ) :    15.989

@ Symmetry 4 (A2 ) :  No IPs in this symmetry

  === End of HF-SCF KT output ===
--------------------------------------------------------------------------------


 CPU and wall time for SCF :       0.034       0.035


 ----- Output from SIRIUS MP2 module -----

 Reference: H.J.Aa.Jensen, P.Jørgensen, H.Ågren, and J.Olsen,
            J. Chem. Phys. 88, 3834 (1988); 89, 5354 (1988)

 Checking that the closed shell orbitals are canonical Hartree-Fock orbitals

    Number of electrons  :   10
    Closed shell orbitals:    3    1    1    0

 Generating Fock matrix

 Hartree-Fock electronic energy:        -102.443296782085
 Hartree-Fock total      energy:         -99.829667611214

 Hartree-Fock orbital energies, symmetry 1 ( A1 ),    3 occupied SCF orbitals

       -26.26586171    -1.46788927    -0.51524088    -0.07128457     0.34047451
         0.79534761     1.07597700     1.54803413     2.20275804     2.32845757
         2.61159279     3.30732809     3.56883831     4.09502521     5.21328971
         7.44490633     7.47193969     8.91306200     9.04764797    10.14168806

 Hartree-Fock orbital energies, symmetry 2 ( B1 ),    1 occupied SCF orbitals

        -0.58757068     0.68089164     1.02733688     2.31159135     3.35894379
         3.74069290     5.13763849     7.43683521     7.46853203     8.91201047

 Hartree-Fock orbital energies, symmetry 3 ( B2 ),    1 occupied SCF orbitals

        -0.58757068     0.68089164     1.02733688     2.31159135     3.35894379
         3.74069290     5.13763849     7.43683521     7.46853203     8.91201047

 Hartree-Fock orbital energies, symmetry 4 ( A2 ),    0 occupied SCF orbitals

         2.32845757     3.30732809     7.44490633     8.91306200

    E(LUMO) :    -0.07128457   (in symmetry 1)
  - E(HOMO) :    -0.51524088   (in symmetry 1)
  --------------------------
    gap     :     0.44395631

 2-el. integral transformation level 5: Total CPU and WALL times (sec)       0.019       0.018

 MP2 move   0.197734 electrons to unoccupied HF orbitals


@   Hartree-Fock total energy   :           -99.8296676112
@   + MP2 contribution          :            -0.3259285548
@   = MP2 second order energy   :          -100.1555961660

 MP2INFO for SOPPA (RHF orbitals) written to SIRIFC

 Natural orbital occupation numbers, symmetry 1 (irrep A1 )
 Sum =     6.00107107; RHF =     6.00000000; Difference =     0.00107107

         1.99966173     1.98472595     1.89082445     0.10464022     0.00991795
         0.00426006     0.00416496     0.00122849     0.00062815     0.00032058
         0.00029683     0.00029496     0.00028202     0.00022418     0.00008877
         0.00003676     0.00001752     0.00001078     0.00000929    -0.00056258

 Natural orbital occupation numbers, symmetry 2 (irrep B1 )
 Sum =     1.99708885; RHF =     2.00000000; Difference =    -0.00291115

         1.96943788     0.02138941     0.00431886     0.00074315     0.00041296
         0.00029752     0.00026514     0.00020045     0.00001350     0.00000996

 Natural orbital occupation numbers, symmetry 3 (irrep B2 )
 Sum =     1.99708885; RHF =     2.00000000; Difference =    -0.00291115

         1.96943788     0.02138941     0.00431886     0.00074315     0.00041296
         0.00029752     0.00026514     0.00020045     0.00001350     0.00000996

 Natural orbital occupation numbers, symmetry 4 (irrep A2 )
 Sum =     0.00475122; RHF =     0.00000000; Difference =     0.00475122

         0.00416496     0.00029496     0.00028202     0.00000929

 Time used for MP2 natural orbitals :       0.021 CPU seconds,       0.021 wall seconds.

 CPU and wall time for MP2 :       0.021       0.021


                       .-----------------------------------.
                       | --- Final results from SIRIUS --- |
                       `-----------------------------------'


@    Spin multiplicity:           1
@    Spatial symmetry:            1 ( irrep  A1  in C2v )
@    Total charge of molecule:    0

@    Final HF energy:             -99.829667611214                 
@    Nuclear repulsion:             2.613629170871
@    Electronic energy:          -102.443296782086

@    Final gradient norm:           0.000000321700

 
     Date and time (Linux)  : Thu Jun 22 08:31:59 2023
     Host name              : fer                                     

File label for MO orbitals:  22Jun23   MP2SAVE 

 (Only coefficients > 0.0100 are printed.)

 Molecular orbitals for symmetry species 1  (A1 )
 ------------------------------------------------

    Orbital         1        2        3        4        5        6        7
   1 H   :1s    -0.0005  -0.0024   0.5427  -0.8156   0.0703   0.0304  -0.0000
   2 H   :1s     0.0001   0.0016   0.0031   0.0089  -0.0245  -0.2009   0.0000
   3 H   :1s     0.0004   0.0019  -0.0103   0.0712   0.0579   0.1344   0.0000
   4 H   :2pz   -0.0001  -0.0001   0.0005   0.0005  -0.0048  -0.0101   0.0000
   5 H   :2pz    0.0003  -0.0092   0.0235  -0.0314  -0.0516  -0.1675   0.0000
   6 H   :3d0    0.0001  -0.0013   0.0036  -0.0005  -0.0084  -0.0423   0.0000
   8 F   :1s    -0.9992   0.0100  -0.0018  -0.0000  -0.0814   0.0193  -0.0000
   9 F   :1s     0.0019  -0.9592  -0.0266   0.0865   1.0977  -0.1151   0.0000
  10 F   :1s    -0.0012  -0.0078  -0.0024   0.0043   0.6397  -0.1005   0.0000
  11 F   :1s    -0.0008  -0.0377  -0.0225   0.0299  -1.7048   0.2205  -0.0000
  12 F   :2pz    0.0021  -0.0371  -0.7452  -1.0201   0.2458   0.3155  -0.0000
  13 F   :2pz   -0.0011   0.0041   0.0112   0.0950  -0.1023  -0.1363   0.0000
  14 F   :2pz    0.0000  -0.0013  -0.0286   0.3994  -0.2362  -0.3445   0.0000
  15 F   :3d0    0.0002   0.0000   0.0015  -0.0027  -0.0280  -0.3324   0.0000
  16 F   :3d2+   0.0000   0.0000   0.0000  -0.0000  -0.0000   0.0000   0.3994
  17 F   :3d0    0.0000  -0.0008   0.0112  -0.0247  -0.0435  -0.7133   0.0000
  18 F   :3d2+  -0.0000  -0.0000  -0.0000   0.0000   0.0000   0.0000   0.7369

    Orbital         8        9       10       11       12       13
   1 H   :1s     0.7594  -1.0734   1.2886   1.2717   0.0000   0.0000
   2 H   :1s    -0.1583  -0.0326  -0.5543  -0.7992  -0.0000  -0.0000
   3 H   :1s    -0.3594   1.1522  -0.8642  -0.4974  -0.0000  -0.0000
   4 H   :2pz    0.0062  -0.0867   0.0427  -0.0145  -0.0000  -0.0000
   5 H   :2pz    0.4018  -0.4826  -0.0057  -0.0797  -0.0000  -0.0000
   6 H   :3d0    0.0347  -0.1377   0.0176  -0.0860  -0.0000  -0.0000
   7 H   :3d2+  -0.0000   0.0000   0.0000   0.0000   0.0141  -0.0011
   8 F   :1s    -0.1592   0.2759   2.1377  -0.0264   0.0000   0.0000
   9 F   :1s    -0.1634   0.5460   4.7122  -0.0773  -0.0000  -0.0000
  10 F   :1s     0.3194  -0.4169  -2.9385   0.0200  -0.0000  -0.0000
  11 F   :1s    -0.1409  -0.3238  -3.0015   0.1041   0.0000   0.0000
  12 F   :2pz   -2.4174  -1.5602  -0.2929   0.3786   0.0000   0.0000
  13 F   :2pz    1.9591   1.6818   0.3901  -0.4823  -0.0000  -0.0000
  14 F   :2pz    1.0725  -0.1404  -0.1704   0.0558  -0.0000  -0.0000
  15 F   :3d0   -0.2565   0.3357   0.1128   0.1243  -0.0000  -0.0000
  16 F   :3d2+  -0.0000  -0.0000   0.0000  -0.0000  -0.9835  -0.4644
  17 F   :3d0   -0.0923  -0.0315  -0.0971  -0.0570   0.0000   0.0000
  18 F   :3d2+   0.0000   0.0000  -0.0000   0.0000   0.8060   0.3868
  19 F   :4f0    0.0945   0.0746  -0.0455   0.9349  -0.0000  -0.0000
  20 F   :4f2+  -0.0000   0.0000   0.0000  -0.0000  -0.4286   0.9034

 Molecular orbitals for symmetry species 2  (B1 )
 ------------------------------------------------

    Orbital         1        2        3        4        5        6        7
   1 H   :2px   -0.0017  -0.0073   0.0101  -0.0136   0.0795   0.0000  -0.0295
   2 H   :2px    0.0205   0.0830  -0.1047  -0.2641   0.7478  -0.0000  -0.0892
   3 H   :3d1+   0.0019   0.0098  -0.0282  -0.0528   0.1514   0.0000   0.0132
   4 F   :2px    0.9849  -1.5929  -0.1956  -2.5463  -0.8494  -0.0000   0.1156
   5 F   :2px   -0.0271   0.5287   0.1308   2.6955   1.0407   0.0000  -0.1450
   6 F   :2px    0.0524   1.4489   0.1208   0.0775  -0.2621   0.0000   0.0335
   7 F   :3d1+  -0.0007  -0.0032   0.3637  -0.1820   0.5372   0.0000  -0.0130
   8 F   :3d1+  -0.0058  -0.0549   0.7501   0.0550  -0.2992  -0.0000   0.0045
   9 F   :4f1+   0.0025  -0.0042  -0.0058   0.0182   0.0913  -0.0000   0.9942
  10 F   :4f3+   0.0000  -0.0000  -0.0000  -0.0000  -0.0000   1.0000   0.0000

    Orbital         8        9       10
   1 H   :2px    0.1654  -0.9186  -0.8631
   2 H   :2px    0.4067   0.5642   0.7360
   3 H   :3d1+   0.0505   0.6958  -0.7037
   4 F   :2px   -0.0612  -0.0877  -0.0088
   5 F   :2px    0.1172   0.1503   0.0289
   6 F   :2px   -0.1176  -0.1378  -0.0569
   7 F   :3d1+  -0.9361  -0.1174  -0.0337
   8 F   :3d1+   0.8178   0.1653   0.0499
   9 F   :4f1+   0.0367  -0.0438   0.0086

 Molecular orbitals for symmetry species 3  (B2 )
 ------------------------------------------------

    Orbital         1        2        3        4        5        6        7
   1 H   :2py   -0.0017  -0.0073   0.0101  -0.0136   0.0795  -0.0000  -0.0295
   2 H   :2py    0.0205   0.0830  -0.1047  -0.2641   0.7478   0.0000  -0.0892
   3 H   :3d1-   0.0019   0.0098  -0.0282  -0.0528   0.1514  -0.0000   0.0132
   4 F   :2py    0.9849  -1.5929  -0.1956  -2.5463  -0.8494   0.0000   0.1156
   5 F   :2py   -0.0271   0.5287   0.1308   2.6955   1.0407  -0.0000  -0.1450
   6 F   :2py    0.0524   1.4489   0.1208   0.0775  -0.2621  -0.0000   0.0335
   7 F   :3d1-  -0.0007  -0.0032   0.3637  -0.1820   0.5372  -0.0000  -0.0130
   8 F   :3d1-  -0.0058  -0.0549   0.7501   0.0550  -0.2992   0.0000   0.0045
   9 F   :4f3-  -0.0000   0.0000   0.0000   0.0000   0.0000   1.0000  -0.0000
  10 F   :4f1-   0.0025  -0.0042  -0.0058   0.0182   0.0913   0.0000   0.9942

    Orbital         8        9       10
   1 H   :2py    0.1654  -0.9186  -0.8631
   2 H   :2py    0.4067   0.5642   0.7360
   3 H   :3d1-   0.0505   0.6958  -0.7037
   4 F   :2py   -0.0612  -0.0877  -0.0088
   5 F   :2py    0.1172   0.1503   0.0289
   6 F   :2py   -0.1176  -0.1378  -0.0569
   7 F   :3d1-  -0.9361  -0.1174  -0.0337
   8 F   :3d1-   0.8178   0.1653   0.0499
  10 F   :4f1-   0.0367  -0.0438   0.0086

 Molecular orbitals for symmetry species 4  (A2 )
 ------------------------------------------------

    Orbital         1        2        3        4
   1 H   :3d2-   0.0037   0.0141  -0.0011   0.9999
   2 F   :3d2-   0.3994  -0.9835  -0.4644   0.0143
   3 F   :3d2-   0.7369   0.8060   0.3868  -0.0185
   4 F   :4f2-  -0.0052  -0.4286   0.9034   0.0080

  Total CPU  time used in SIRIUS :   0.06 seconds
  Total wall time used in SIRIUS :   0.06 seconds

 
     Date and time (Linux)  : Thu Jun 22 08:31:59 2023
     Host name              : fer                                     


                     .---------------------------------------.
                     | End of Wave Function Section (SIRIUS) |
                     `---------------------------------------'



                 .------------------------------------------------.
                 | Starting in Dynamic Property Section (RESPONS) |
                 `------------------------------------------------'


 ----------------------------------------------------------------------------------------
  RESPONSE  -  an MCSCF, MC-srDFT, DFT, SOPPA and SOPPA-srDFT response property program
 ----------------------------------------------------------------------------------------


 -------- OUTPUT FROM RESPONSE INPUT PROCESSING --------




 CHANGES OF DEFAULTS FOR RSPINP:
 -------------------------------


 Higher RPA Polarization Propagator Approximation -- HRPA

 ** CALCULATION OF TRIPLET RESPONSE PROPERTIES  **  TRPFLG = T  TRPLET = T

 Default : Using Fock type decoupling of the two-electron density matrix :
    Add DV*(FC+FV) instead of DV*FC to E[2] approximate orbital diagonal



 Linear Response calculation
 ---------------------------

 Print level                                    : IPRLR  =  32
 Maximum number of iterations                   : MAXITL =  60
 Threshold for relative convergence             : THCLR  = 1.000D-03
 Maximum iterations in optimal orbital algorithm: MAXITO =   5

  1 B-frequencies  0.000000D+00

 General print level in RESPONS is IPRRSP =        32

 NPRLBL=    2 labels in property calculations in RESPONS:

  I      PRPLBL(I), I=1,NPRLBL 
    1     FC H 001
    2     FC F 002

 RSPSYM: number of property vectors :

 NGPPP(I) ,I=1,NSYM    0    0    0    0
 NGPLR(I) ,I=1,NSYM    2    0    0    0
 NGPC6(I) ,I=1,NSYM    0    0    0    0
 NAQROP(I),I=1,NSYM    0    0    0    0
 NBQROP(I),I=1,NSYM    0    0    0    0
 NCQROP(I),I=1,NSYM    0    0    0    0
 NASMOP(I),I=1,NSYM    0    0    0    0
 NBSMOP(I),I=1,NSYM    0    0    0    0
 NESRS(I) ,I=1,NSYM    0    0    0    0
 NESRT(I) ,I=1,NSYM    0    0    0    0
 NACROP(I),I=1,NSYM    0    0    0    0
 NBCROP(I),I=1,NSYM    0    0    0    0
 NCCROP(I),I=1,NSYM    0    0    0    0
 NDCROP(I),I=1,NSYM    0    0    0    0
 NATMOP(I),I=1,NSYM    0    0    0    0
 NBTMOP(I),I=1,NSYM    0    0    0    0
 NCTMOP(I),I=1,NSYM    0    0    0    0
 NATPOP(I),I=1,NSYM    0    0    0    0
 NBTPOP(I),I=1,NSYM    0    0    0    0

  SYMMETRY   NO.CONV  NO.START NO.SIMULT

         1         0         0         0
         2         0         0         0
         3         0         0         0
         4         0         0         0

    2 second order properties calculated with symmetry no.    1 and labels:

          FC H 001
          FC F 002

 Old direct access AO file found, SORTA skipped.

 2-el. integral transformation level 10: Total CPU and WALL times (sec)       0.034       0.033

 Sorting integrals to Dirac format: Total CPU and WALL times (sec)       0.002       0.002


   SCF energy         :      -99.829667611214191
 -- inactive part     :     -102.443296782085596
 -- nuclear repulsion :        2.613629170871399

 NISHT,NASHT,NORBT,NBAST,NCREF,IREFSY     5     0    44    44     1     1

 RSPMC : MP2 singlet and triplet correlation coefficients

               Column   1     Column   2     Column   3     Column   4     Column   5     Column   6     Column   7     Column   8
       1      -0.00023482     0.00016298    -0.00018361    -0.00000000    -0.00000000     0.00003803    -0.00000000    -0.00000000
       2      -0.00004030     0.00021242    -0.00005539     0.00004749    -0.00001663    -0.00071104    -0.00000547     0.00006614

               Column   9     Column  10     Column  11     Column  12     Column  13     Column  14     Column  15     Column  16
       1       0.00030440    -0.00007932     0.00029329    -0.00000034    -0.00000362     0.00000074     0.00054975    -0.00000160
       2      -0.00041196     0.00011679    -0.00002295    -0.00000000    -0.00000000    -0.00002793    -0.00000000    -0.00000000

               Column  17     Column  18     Column  19     Column  20     Column  21     Column  22     Column  23     Column  24
       1      -0.00003584    -0.00003327    -0.00013458     0.00070742    -0.00000000    -0.00000000    -0.00006709    -0.00000000
       2      -0.00019330    -0.00011381     0.00034253    -0.00037334     0.00029657    -0.00012167    -0.00016769    -0.00004198

               Column  25     Column  26     Column  27     Column  28     Column  29     Column  30     Column  31     Column  32
       1      -0.00000000    -0.00052589     0.00012268     0.00012064     0.00031632    -0.00000000     0.00009736    -0.00061636
       2      -0.00095745     0.00009736    -0.00061636    -0.00006804     0.00001358     0.00087633     0.00012268     0.00012064

               Column  33     Column  34     Column  35     Column  36     Column  37     Column  38     Column  39     Column  40
       1      -0.00006804     0.00001358     0.00087633    -0.00001206     0.00007077    -0.00000599     0.00000384     0.00000447
       2       0.00031632    -0.00000000    -0.00004030     0.00000907     0.00001638    -0.00000000    -0.00000000     0.00002163

               Column  41     Column  42     Column  43     Column  44     Column  45     Column  46     Column  47     Column  48
       1      -0.00015437     0.00000617    -0.00003229    -0.00009691     0.00003968    -0.00003243    -0.00000000    -0.00000000
       2      -0.00000000    -0.00000000    -0.00010506    -0.00001627     0.00005632    -0.00000466     0.00000365    -0.00000413

               Column  49     Column  50     Column  51     Column  52     Column  53     Column  54     Column  55     Column  56
       1      -0.00001179    -0.00000000    -0.00000000     0.00005131    -0.00000886    -0.00000865    -0.00006691     0.00005313
       2       0.00010559    -0.00000406     0.00001954     0.00006292    -0.00006457     0.00017529    -0.00000000    -0.00000000

               Column  57     Column  58     Column  59     Column  60     Column  61     Column  62     Column  63     Column  64
       1      -0.00002560     0.00014687    -0.00000978    -0.00020367    -0.00000127    -0.00012833    -0.00000944     0.00000184
       2      -0.00003130    -0.00000000    -0.00000000    -0.00010791    -0.00003808     0.00001877    -0.00008304    -0.00000000

               Column  65     Column  66     Column  67     Column  68     Column  69     Column  70     Column  71     Column  72
       1       0.00018373    -0.00003808     0.00001877    -0.00008304    -0.00000000     0.00016298    -0.00018394     0.00030759
       2      -0.00000127    -0.00012833    -0.00000944     0.00000184     0.00018373     0.00000907    -0.00001920     0.00005206

               Column  73     Column  74     Column  75     Column  76     Column  77     Column  78     Column  79     Column  80
       1      -0.00000000    -0.00000000     0.00003012    -0.00000000    -0.00000000    -0.00077833     0.00005800    -0.00025107
       2      -0.00004964     0.00003922     0.00037513     0.00002998    -0.00019922     0.00024452    -0.00004024    -0.00007003

               Column  81     Column  82     Column  83     Column  84     Column  85     Column  86     Column  87     Column  88
       1       0.00000006     0.00000488    -0.00001389    -0.00018382    -0.00001578     0.00011417     0.00016987    -0.00000614
       2      -0.00000000    -0.00000000    -0.00001977    -0.00000000    -0.00000000     0.00046222     0.00009257    -0.00036501

               Column  89     Column  90     Column  91     Column  92     Column  93     Column  94     Column  95     Column  96
       1      -0.00032422    -0.00000000    -0.00000000    -0.00000277    -0.00000000    -0.00000000     0.00029810    -0.00037166
       2       0.00022882    -0.00018280     0.00006797     0.00053126     0.00001281     0.00054282    -0.00015463     0.00033405

               Column  97     Column  98     Column  99     Column 100     Column 101     Column 102     Column 103     Column 104
       1      -0.00009693    -0.00088344    -0.00000000    -0.00015463     0.00033405     0.00006023     0.00000249    -0.00048485
       2       0.00006023     0.00000249    -0.00048485    -0.00037166    -0.00009693    -0.00088344    -0.00000000     0.00021242

               Column 105     Column 106     Column 107     Column 108     Column 109     Column 110     Column 111     Column 112
       1       0.00007077    -0.00042480     0.00002579    -0.00001305    -0.00003493     0.00086156    -0.00004243     0.00022029
       2      -0.00001920    -0.00016029    -0.00000000    -0.00000000    -0.00013689    -0.00000000    -0.00000000     0.00075221

               Column 113     Column 114     Column 115     Column 116     Column 117     Column 118     Column 119     Column 120
       1       0.00060314    -0.00027004     0.00024858    -0.00000000    -0.00000000     0.00006027    -0.00000000    -0.00000000
       2       0.00010018    -0.00037192     0.00003580    -0.00003000     0.00002894    -0.00041790     0.00002860    -0.00012806

               Column 121     Column 122     Column 123     Column 124     Column 125     Column 126     Column 127     Column 128
       1      -0.00043571     0.00006822    -0.00005650     0.00037354    -0.00029733     0.00013833    -0.00063116     0.00006406
       2      -0.00024907     0.00030686    -0.00092048    -0.00000000    -0.00000000     0.00015234    -0.00000000    -0.00000000

               Column 129     Column 130     Column 131     Column 132     Column 133     Column 134     Column 135     Column 136
       1       0.00110845     0.00007453     0.00070038     0.00003666    -0.00002860    -0.00103546     0.00041056    -0.00008219
       2       0.00058532     0.00041056    -0.00008219     0.00091589    -0.00000000     0.00007453     0.00070038     0.00003666

               Column 137     Column 138     Column 139     Column 140     Column 141     Column 142     Column 143     Column 144
       1       0.00091589    -0.00000000    -0.00018361     0.00030759    -0.00060387    -0.00000000    -0.00000000    -0.00011320
       2      -0.00002860    -0.00103546     0.00001638    -0.00016029    -0.00007665     0.00007849    -0.00008248    -0.00025293

               Column 145     Column 146     Column 147     Column 148     Column 149     Column 150     Column 151     Column 152
       1      -0.00000000    -0.00000000     0.00165963    -0.00005833     0.00029030     0.00002470    -0.00002858     0.00004027
       2      -0.00006953     0.00044694    -0.00017512    -0.00003789     0.00020956    -0.00000000    -0.00000000     0.00006826

               Column 153     Column 154     Column 155     Column 156     Column 157     Column 158     Column 159     Column 160
       1       0.00008070     0.00003928    -0.00026944    -0.00053976     0.00022389     0.00008870    -0.00000000    -0.00000000
       2      -0.00000000    -0.00000000    -0.00098425    -0.00015907     0.00076298    -0.00025174     0.00020116    -0.00005459

               Column 161     Column 162     Column 163     Column 164     Column 165     Column 166     Column 167     Column 168
       1       0.00010761    -0.00000000    -0.00000000    -0.00023770     0.00071329     0.00011964     0.00171820    -0.00000000
       2      -0.00156604    -0.00001484    -0.00043243     0.00026326    -0.00026310    -0.00007965     0.00001052     0.00038255

               Column 169     Column 170     Column 171     Column 172     Column 173     Column 174     Column 175     Column 176
       1       0.00026326    -0.00026310    -0.00007965     0.00001052     0.00038255    -0.00000599     0.00002579    -0.00001751
       2       0.00071329     0.00011964     0.00171820    -0.00000000    -0.00005539     0.00005206    -0.00007665    -0.00000000

               Column 177     Column 178     Column 179     Column 180     Column 181     Column 182     Column 183     Column 184
       1       0.00001613    -0.00001060    -0.00014712    -0.00000745     0.00003041    -0.00010785     0.00003734     0.00000666
       2      -0.00000000    -0.00000312    -0.00000000    -0.00000000     0.00018546    -0.00002514     0.00009991    -0.00003153

               Column 185     Column 186     Column 187     Column 188     Column 189     Column 190     Column 191     Column 192
       1      -0.00000000    -0.00000000    -0.00000246    -0.00000000    -0.00000000    -0.00010418     0.00000921    -0.00009015
       2       0.00002456    -0.00000845     0.00001345     0.00000287    -0.00000804     0.00012311    -0.00010105     0.00018895

               Column 193     Column 194     Column 195     Column 196     Column 197     Column 198     Column 199     Column 200
       1      -0.00004155     0.00003437    -0.00002373     0.00033039     0.00003603    -0.00019732     0.00006995    -0.00011533
       2      -0.00000000    -0.00000000    -0.00004756    -0.00000000    -0.00000000    -0.00012124     0.00018328     0.00004071

               Column 201     Column 202     Column 203     Column 204     Column 205     Column 206     Column 207     Column 208
       1      -0.00002619    -0.00004724     0.00017843     0.00018328     0.00004071     0.00043085    -0.00000000    -0.00000000
       2       0.00043085    -0.00000000     0.00006995    -0.00011533    -0.00002619    -0.00004724     0.00017843    -0.00000000

               Column 209     Column 210     Column 211     Column 212     Column 213     Column 214     Column 215     Column 216
       1      -0.00000000    -0.00000000    -0.00000442     0.00000014    -0.00000000     0.00000013     0.00002443    -0.00000000

               Column 217     Column 218     Column 219     Column 220     Column 221     Column 222     Column 223     Column 224
       2      -0.00000000    -0.00000000    -0.00006058     0.00000112    -0.00000000     0.00000005    -0.00001981    -0.00000000

               Column 225     Column 226     Column 227     Column 228     Column 229     Column 230     Column 231     Column 232
       1      -0.00000000    -0.00000000    -0.00000000    -0.00000388     0.00000063    -0.00000000    -0.00005418     0.00000113

               Column 233     Column 234     Column 235     Column 236     Column 237     Column 238     Column 239     Column 240
       1      -0.00000000     0.00030204     0.00003240     0.00069457     0.00008243    -0.00010011     0.00000580     0.00002374
       2       0.00010011    -0.00000580    -0.00002374    -0.00002490     0.00000392    -0.00030204    -0.00003240    -0.00069457

               Column 241     Column 242     Column 243     Column 244     Column 245     Column 246     Column 247     Column 248
       1       0.00002490    -0.00000392     0.00000384    -0.00001305     0.00001613    -0.00001518     0.00001119     0.00011746
       2       0.00008243     0.00004749    -0.00004964     0.00007849    -0.00000000    -0.00000000     0.00000685    -0.00000000

               Column 249     Column 250     Column 251     Column 252     Column 253     Column 254     Column 255     Column 256
       1       0.00000824    -0.00003480     0.00008829    -0.00002884    -0.00001287    -0.00000000    -0.00000000     0.00000210
       2      -0.00000000    -0.00019749     0.00002151    -0.00008567     0.00002967    -0.00002332     0.00000809    -0.00000773

               Column 257     Column 258     Column 259     Column 260     Column 261     Column 262     Column 263     Column 264
       1      -0.00000000    -0.00000000     0.00011082    -0.00000468     0.00005762     0.00003604    -0.00002969     0.00001970
       2      -0.00000326     0.00001963    -0.00008557     0.00007539    -0.00014885    -0.00000000    -0.00000000     0.00003640

               Column 265     Column 266     Column 267     Column 268     Column 269     Column 270     Column 271     Column 272
       1      -0.00023994    -0.00003647     0.00015965    -0.00006379     0.00009487     0.00002335     0.00004546    -0.00014837
       2      -0.00000000    -0.00000000     0.00009960    -0.00017006    -0.00003588    -0.00040806    -0.00000000    -0.00006379

               Column 273     Column 274     Column 275     Column 276     Column 277     Column 278     Column 279     Column 280
       1      -0.00017006    -0.00003588    -0.00040806    -0.00000000    -0.00000000    -0.00000000    -0.00000000     0.00000014
       2       0.00009487     0.00002335     0.00004546    -0.00014837    -0.00000000    -0.00000000    -0.00000000    -0.00000000

               Column 281     Column 282     Column 283     Column 284     Column 285     Column 286     Column 287     Column 288
       1      -0.00000000    -0.00000000     0.00000001    -0.00000082    -0.00000000    -0.00000000    -0.00000000    -0.00000000
       2      -0.00000000    -0.00000000    -0.00000000    -0.00000000    -0.00000000    -0.00000000    -0.00000000     0.00000197

               Column 289     Column 290     Column 291     Column 292     Column 293     Column 294     Column 295     Column 296
       2      -0.00000005    -0.00000000     0.00000010    -0.00000057    -0.00000000    -0.00000000    -0.00000000    -0.00000000

               Column 297     Column 298     Column 299     Column 300     Column 301     Column 302     Column 303     Column 304
       1      -0.00000007     0.00000006    -0.00000000     0.00000175     0.00000056    -0.00000000    -0.00000581    -0.00000068
       2      -0.00000000    -0.00000000    -0.00000000    -0.00000000    -0.00000000    -0.00000191     0.00000018     0.00000051

               Column 305     Column 306     Column 307     Column 308     Column 309     Column 310     Column 311     Column 312
       1      -0.00001460    -0.00000247     0.00000191    -0.00000018    -0.00000051    -0.00000068     0.00000048     0.00000447
       2       0.00000068    -0.00000048     0.00000581     0.00000068     0.00001460    -0.00000247    -0.00001663     0.00003922

               Column 313     Column 314     Column 315     Column 316     Column 317     Column 318     Column 319     Column 320
       1      -0.00003493    -0.00001060     0.00001119    -0.00001317    -0.00000253    -0.00001149     0.00005366    -0.00000607
       2      -0.00008248    -0.00000000    -0.00000000    -0.00002076    -0.00000000    -0.00000000     0.00025056    -0.00000567

               Column 321     Column 322     Column 323     Column 324     Column 325     Column 326     Column 327     Column 328
       1      -0.00000696     0.00003584    -0.00000000    -0.00000000    -0.00000137    -0.00000000    -0.00000000    -0.00012703
       2       0.00001969    -0.00001865     0.00001489    -0.00000505     0.00000759     0.00000534    -0.00004444     0.00000581

               Column 329     Column 330     Column 331     Column 332     Column 333     Column 334     Column 335     Column 336
       1       0.00000044    -0.00000542    -0.00000467     0.00000456    -0.00000417     0.00004001     0.00003540    -0.00001782
       2      -0.00001044     0.00002083    -0.00000000    -0.00000000    -0.00000755    -0.00000000    -0.00000000    -0.00001829

               Column 337     Column 338     Column 339     Column 340     Column 341     Column 342     Column 343     Column 344
       1       0.00004690    -0.00001633    -0.00001336    -0.00003729     0.00002391     0.00013909     0.00001862     0.00034656
       2       0.00013909     0.00001862     0.00034656    -0.00000000     0.00004690    -0.00001633    -0.00001336    -0.00003729

               Column 345     Column 346     Column 347     Column 348     Column 349     Column 350     Column 351     Column 352
       1      -0.00000000     0.00003803     0.00003012    -0.00011320    -0.00000000    -0.00000000    -0.00005340    -0.00000000
       2       0.00002391     0.00002163    -0.00013689    -0.00000312     0.00000685    -0.00002076     0.00021815    -0.00002115

               Column 353     Column 354     Column 355     Column 356     Column 357     Column 358     Column 359     Column 360
       1      -0.00000000     0.00041742     0.00002369    -0.00011001    -0.00000511     0.00000399     0.00000011     0.00003749
       2       0.00010245     0.00015535    -0.00008129     0.00009740    -0.00000000    -0.00000000    -0.00000140    -0.00000000

               Column 361     Column 362     Column 363     Column 364     Column 365     Column 366     Column 367     Column 368
       1       0.00001016    -0.00007112    -0.00003423     0.00004975    -0.00016765    -0.00000000    -0.00000000     0.00001907
       2      -0.00000000    -0.00020791     0.00001639    -0.00003461     0.00006968    -0.00005513     0.00002310    -0.00005811

               Column 369     Column 370     Column 371     Column 372     Column 373     Column 374     Column 375     Column 376
       1      -0.00000000    -0.00000000     0.00012556     0.00019552    -0.00000053     0.00048506    -0.00000000     0.00005351
       2       0.00004967     0.00023928     0.00005351     0.00012334    -0.00000407    -0.00004488    -0.00020969     0.00019552

               Column 377     Column 378     Column 379     Column 380     Column 381     Column 382     Column 383     Column 384
       1       0.00012334    -0.00000407    -0.00004488    -0.00020969    -0.00015437     0.00086156    -0.00014712     0.00011746
       2      -0.00000053     0.00048506    -0.00000000    -0.00071104     0.00037513    -0.00025293    -0.00000000    -0.00000000

               Column 385     Column 386     Column 387     Column 388     Column 389     Column 390     Column 391     Column 392
       1      -0.00000253    -0.00244030     0.00002985    -0.00006808    -0.00176505     0.00075540    -0.00050692    -0.00000000
       2       0.00021815    -0.00000000    -0.00000000    -0.00006003    -0.00034477     0.00157091    -0.00015769     0.00012413

               Column 393     Column 394     Column 395     Column 396     Column 397     Column 398     Column 399     Column 400
       1      -0.00000000     0.00006679    -0.00000000    -0.00000000     0.00004215    -0.00024296     0.00074605    -0.00085306
       2      -0.00003587    -0.00060687    -0.00000942     0.00001642     0.00006857    -0.00045682     0.00188042    -0.00000000

               Column 401     Column 402     Column 403     Column 404     Column 405     Column 406     Column 407     Column 408
       1       0.00068348    -0.00029231    -0.00003659    -0.00011992    -0.00283371     0.00009637    -0.00148034    -0.00014133
       2      -0.00000000    -0.00018124    -0.00000000    -0.00000000    -0.00163320    -0.00009564     0.00026064    -0.00014710

               Column 409     Column 410     Column 411     Column 412     Column 413     Column 414     Column 415     Column 416
       1       0.00005161     0.00257088    -0.00009564     0.00026064    -0.00014710    -0.00000000    -0.00000000    -0.00000000
       2      -0.00000000     0.00009637    -0.00148034    -0.00014133     0.00005161     0.00257088    -0.00000000    -0.00000000

               Column 417     Column 418     Column 419     Column 420     Column 421     Column 422     Column 423     Column 424
       1      -0.00000000     0.00000013     0.00000001    -0.00000000    -0.00000545    -0.00000069    -0.00000000    -0.00000000

               Column 425     Column 426     Column 427     Column 428     Column 429     Column 430     Column 431     Column 432
       2      -0.00000000     0.00000171     0.00000015    -0.00000000    -0.00005892    -0.00000160    -0.00000000    -0.00000000

               Column 433     Column 434     Column 435     Column 436     Column 437     Column 438     Column 439     Column 440
       1      -0.00000000    -0.00000000    -0.00000623    -0.00000024    -0.00000000    -0.00000289    -0.00005703    -0.00000000
       2      -0.00000000    -0.00000000    -0.00000000    -0.00000000    -0.00000000    -0.00000000    -0.00000000    -0.00000148

               Column 441     Column 442     Column 443     Column 444     Column 445     Column 446     Column 447     Column 448
       1      -0.00000191    -0.00000030    -0.00000711    -0.00000183     0.00000148    -0.00000770    -0.00000001    -0.00000136
       2       0.00000770     0.00000001     0.00000136     0.00006903     0.00000191     0.00000030     0.00000711    -0.00000183

               Column 449     Column 450     Column 451     Column 452     Column 453     Column 454     Column 455     Column 456
       1      -0.00006903     0.00000617    -0.00004243    -0.00000745     0.00000824    -0.00001149     0.00002985    -0.00001666
       2      -0.00000547     0.00002998    -0.00006953    -0.00000000    -0.00000000    -0.00002115    -0.00000000    -0.00000000

               Column 457     Column 458     Column 459     Column 460     Column 461     Column 462     Column 463     Column 464
       1       0.00005421     0.00001813    -0.00001190     0.00002903    -0.00000000    -0.00000000     0.00000117    -0.00000000
       2       0.00024011    -0.00000029    -0.00000841    -0.00001287     0.00000924    -0.00000169     0.00000894    -0.00005688

               Column 465     Column 466     Column 467     Column 468     Column 469     Column 470     Column 471     Column 472
       1      -0.00000000    -0.00009108     0.00000180     0.00000580     0.00001145    -0.00000741    -0.00000155    -0.00001183
       2      -0.00004725    -0.00001186     0.00000580    -0.00002100    -0.00000000    -0.00000000    -0.00000185    -0.00000000

               Column 473     Column 474     Column 475     Column 476     Column 477     Column 478     Column 479     Column 480
       1       0.00001653    -0.00005444     0.00001994     0.00000382    -0.00000488    -0.00002630    -0.00007335     0.00006294
       2      -0.00000000     0.00002999     0.00006294     0.00000626     0.00017761    -0.00000000     0.00001994     0.00000382

               Column 481     Column 482     Column 483     Column 484     Column 485     Column 486     Column 487     Column 488
       1       0.00000626     0.00017761    -0.00000000    -0.00000000    -0.00000000    -0.00000000     0.00002443    -0.00000082
       2      -0.00000488    -0.00002630    -0.00007335    -0.00000000    -0.00000000    -0.00000000    -0.00000000    -0.00000000

               Column 489     Column 490     Column 491     Column 492     Column 493     Column 494     Column 495     Column 496
       1      -0.00000000    -0.00000069    -0.00014991    -0.00000000    -0.00000000    -0.00000000    -0.00000000    -0.00000000
       2      -0.00000000    -0.00000000    -0.00000000    -0.00000000    -0.00000000    -0.00000000     0.00031424    -0.00000715

               Column 497     Column 498     Column 499     Column 500     Column 501     Column 502     Column 503     Column 504
       1      -0.00000000    -0.00000000    -0.00000000    -0.00000000    -0.00000000    -0.00000000    -0.00000000     0.00001999
       2      -0.00000000    -0.00000180    -0.00040607    -0.00000000    -0.00000000    -0.00000000    -0.00000000    -0.00000000

               Column 505     Column 506     Column 507     Column 508     Column 509     Column 510     Column 511     Column 512
       1      -0.00000205    -0.00000000     0.00023533    -0.00003319    -0.00000000    -0.00021799    -0.00003675    -0.00088987
       2      -0.00000000    -0.00000000    -0.00000000    -0.00000000    -0.00006693     0.00000599     0.00002819     0.00009804

               Column 513     Column 514     Column 515     Column 516     Column 517     Column 518     Column 519     Column 520
       1      -0.00035816     0.00006693    -0.00000599    -0.00002819    -0.00009804     0.00000778    -0.00003229     0.00022029
       2      -0.00000778     0.00021799     0.00003675     0.00088987    -0.00035816     0.00006614    -0.00019922     0.00044694

               Column 521     Column 522     Column 523     Column 524     Column 525     Column 526     Column 527     Column 528
       1       0.00003041    -0.00003480     0.00005366    -0.00006808     0.00005421    -0.00053952    -0.00004308     0.00008759
       2      -0.00000000    -0.00000000     0.00010245    -0.00000000    -0.00000000    -0.00145694    -0.00000746    -0.00005049

               Column 529     Column 530     Column 531     Column 532     Column 533     Column 534     Column 535     Column 536
       1      -0.00004015    -0.00000000    -0.00000000    -0.00013598    -0.00000000    -0.00000000     0.00063152     0.00006803
       2      -0.00021768     0.00019117    -0.00012419     0.00001612    -0.00005429    -0.00022488     0.00027918    -0.00018113

               Column 537     Column 538     Column 539     Column 540     Column 541     Column 542     Column 543     Column 544
       1      -0.00036215     0.00006300    -0.00004298    -0.00002409     0.00133128     0.00028520    -0.00004245    -0.00005691
       2       0.00014290    -0.00000000    -0.00000000    -0.00014399    -0.00000000    -0.00000000    -0.00000811    -0.00014728

               Column 545     Column 546     Column 547     Column 548     Column 549     Column 550     Column 551     Column 552
       1      -0.00000977     0.00000122    -0.00030593     0.00003228    -0.00014728    -0.00000211    -0.00024091    -0.00000000
       2      -0.00000211    -0.00024091    -0.00000000    -0.00005691    -0.00000977     0.00000122    -0.00030593     0.00003228

               Column 553     Column 554     Column 555     Column 556     Column 557     Column 558     Column 559     Column 560
       1       0.00030440    -0.00077833     0.00165963    -0.00000000    -0.00000000     0.00041742    -0.00000000    -0.00000000
       2      -0.00010506     0.00075221     0.00018546    -0.00019749     0.00025056    -0.00006003     0.00024011    -0.00145694

               Column 561     Column 562     Column 563     Column 564     Column 565     Column 566     Column 567     Column 568
       1      -0.00559418     0.00004653    -0.00022097     0.00001410    -0.00000612    -0.00003436     0.00008840    -0.00007380
       2      -0.00000301     0.00013605    -0.00034352    -0.00000000    -0.00000000    -0.00008681    -0.00000000    -0.00000000

               Column 569     Column 570     Column 571     Column 572     Column 573     Column 574     Column 575     Column 576
       1       0.00062272     0.00056053    -0.00027761     0.00014489    -0.00000000    -0.00000000    -0.00014725    -0.00000000
       2       0.00195593     0.00012611    -0.00068286     0.00013908    -0.00011320     0.00001764     0.00177907    -0.00009588

               Column 577     Column 578     Column 579     Column 580     Column 581     Column 582     Column 583     Column 584
       1      -0.00000000     0.00013836    -0.00094016    -0.00012058    -0.00263661    -0.00000000    -0.00031798     0.00006493
       2       0.00016375    -0.00031798     0.00006493     0.00008857     0.00009320    -0.00010660    -0.00094016    -0.00012058

               Column 585     Column 586     Column 587     Column 588     Column 589     Column 590     Column 591     Column 592
       1       0.00008857     0.00009320    -0.00010660    -0.00010791    -0.00001239    -0.00029214    -0.00000000    -0.00005459
       2      -0.00263661    -0.00000000    -0.00003624     0.00000243     0.00000922     0.00000175    -0.00000291    -0.00014077

               Column 593     Column 594     Column 595     Column 596     Column 597     Column 598     Column 599     Column 600
       1       0.00000214    -0.00000146    -0.00000190     0.00000430     0.00002625    -0.00002962     0.00007977    -0.00000000
       2       0.00000008     0.00015130    -0.00000000    -0.00001686     0.00020480     0.00001649    -0.00000745    -0.00028576

               Column 601     Column 602     Column 603     Column 604     Column 605     Column 606     Column 607     Column 608
       1      -0.00008577     0.00017853    -0.00028488    -0.00025049     0.00000538    -0.00009825    -0.00000020     0.00036000
       2       0.00000583    -0.00013713    -0.00012822     0.00011514    -0.00008316    -0.00003270    -0.00003489    -0.00008936

               Column 609     Column 610     Column 611     Column 612     Column 613     Column 614     Column 615     Column 616
       1       0.00041399     0.00000538     0.00036000    -0.00032139    -0.00003676    -0.00087049    -0.00000000    -0.00017076
       2      -0.00025049    -0.00000020    -0.00010791     0.00000660     0.00002739     0.00000534    -0.00000522    -0.00044647

               Column 617     Column 618     Column 619     Column 620     Column 621     Column 622     Column 623     Column 624
       1      -0.00000009    -0.00000265    -0.00000538     0.00000058    -0.00002765    -0.00009625     0.00002252    -0.00000000
       2      -0.00000187     0.00039011    -0.00000000    -0.00008601     0.00060290     0.00005561    -0.00002926    -0.00083983

               Column 625     Column 626     Column 627     Column 628     Column 629     Column 630     Column 631     Column 632
       1      -0.00018224     0.00049026    -0.00081457    -0.00074195     0.00001588    -0.00030770     0.00000933     0.00107723
       2       0.00003217    -0.00049088    -0.00036745     0.00033112    -0.00024554     0.00008554    -0.00011380    -0.00027367

               Column 633     Column 634     Column 635     Column 636     Column 637     Column 638     Column 639     Column 640
       1       0.00122830     0.00001588     0.00107723     0.00000660     0.00000186     0.00001828    -0.00000000     0.00000868
       2      -0.00074195     0.00000933     0.00000243    -0.00000431    -0.00000121     0.00000025     0.00002385     0.00000985

               Column 641     Column 642     Column 643     Column 644     Column 645     Column 646     Column 647     Column 648
       1      -0.00005792    -0.00000453     0.00000021    -0.00002082    -0.00024760    -0.00002071    -0.00056733    -0.00000000
       2       0.00000880    -0.00000026    -0.00000000    -0.00008490    -0.00000844     0.00001614    -0.00006337     0.00001739

               Column 649     Column 650     Column 651     Column 652     Column 653     Column 654     Column 655     Column 656
       1       0.00023854    -0.00013914     0.00011928     0.00001311    -0.00000061    -0.00004798     0.00006544    -0.00002134
       2       0.00004869    -0.00027883     0.00005398    -0.00004651     0.00001304     0.00068151    -0.00005357     0.00001397

               Column 657     Column 658     Column 659     Column 660     Column 661     Column 662     Column 663     Column 664
       1      -0.00004912    -0.00000061    -0.00002134    -0.00003676    -0.00000454    -0.00010149    -0.00000000    -0.00002456
       2       0.00001311     0.00006544    -0.00001239     0.00000186     0.00000335     0.00000062    -0.00000706    -0.00006380

               Column 665     Column 666     Column 667     Column 668     Column 669     Column 670     Column 671     Column 672
       1       0.00001561     0.00000257     0.00000034    -0.00000455     0.00003083    -0.00000615     0.00008839    -0.00000000
       2      -0.00000475    -0.00000573    -0.00000000     0.00000366     0.00005724     0.00000307     0.00001343    -0.00008697

               Column 673     Column 674     Column 675     Column 676     Column 677     Column 678     Column 679     Column 680
       1      -0.00005462     0.00006977    -0.00010033    -0.00007168     0.00000163    -0.00002269    -0.00001500     0.00011588
       2      -0.00000429    -0.00000331    -0.00004389     0.00003964    -0.00002653    -0.00011001     0.00000079    -0.00003227

               Column 681     Column 682     Column 683     Column 684     Column 685     Column 686     Column 687     Column 688
       1       0.00014154     0.00000163     0.00011588     0.00002739     0.00000335     0.00007584    -0.00000000     0.00001835
       2      -0.00007168    -0.00001500     0.00000922    -0.00000121    -0.00000247    -0.00000048     0.00000424     0.00004837

               Column 689     Column 690     Column 691     Column 692     Column 693     Column 694     Column 695     Column 696
       1      -0.00000931    -0.00000186    -0.00000035     0.00000354    -0.00001712     0.00000510    -0.00005091    -0.00000000
       2       0.00000333     0.00000861    -0.00000000    -0.00000095    -0.00004188    -0.00000251    -0.00000725     0.00006468

               Column 697     Column 698     Column 699     Column 700     Column 701     Column 702     Column 703     Column 704
[...]
      10      -0.00556141    -5.18446604    -0.09215841    -6.14631138    -0.05328263     6.31582127
      11       0.62751312    -0.03371871     2.91993344    -0.07434295    -5.87518656    -0.06818230
      12      -0.03371871     0.62751312    -0.07434295     2.91993344    -0.06818230    -5.87518656
      13       2.58379575     0.04321140     0.18374381     0.03182280     1.95195193     0.00021742
      14       0.04321140     2.58379575     0.03182280     0.18374381     0.00021742     1.95195193

               Column   7     Column   8     Column   9     Column  10     Column  11     Column  12
       7      20.95556081
       8       0.07120522    20.95556081
       9     -14.99538216     0.06321209    11.95245710
      10       0.06321209   -14.99538216     0.10989651    11.95245710
      11      14.27864996    -0.01434280   -11.26477247     0.03770538    14.22664813
      12      -0.01434280    14.27864996     0.03770538   -11.26477247     0.06418618    14.22664813
      13      -7.00170892    -0.01685181     5.35580463    -0.00931710    -7.53653270     0.03424608
      14      -0.01685181    -7.00170892    -0.00931710     5.35580463     0.03424608    -7.53653270

               Column  13     Column  14
      13      12.50422311
      14       0.05795080    12.50422311
    ==== End of matrix output ====
 REDUCED GRADIENT VECTORS DIM (2,KZRED)           7

               Column   1     Column   2     Column   3     Column   4     Column   5     Column   6     Column   7
       1     2.747410E+03   9.915512E+02  -3.522357E+02   1.912149E+02  -2.782495E+02   2.139411E+01   1.577263E+02
       2    -2.747410E+03  -9.915512E+02   3.522357E+02  -1.912149E+02   2.782495E+02  -2.139411E+01  -1.577263E+02
    ==== End of matrix output ====

 GP * SOLUTION vector at frequency     0.00000 a.u.
 after    7 linear transformations is      3.32162897D+05
 INERTIA (POS,ZER,NEG) of reduced matrix is   14    0    0
 Determinant of reduced matrix is  9.45 * 10 **  9.0

 REDUCED PROPERTY VECTOR AND REDUCED SOLUTION:

    1   2.747410D+03   6.416439D+01
    2  -2.747410D+03  -6.416439D+01

    3   9.915512D+02  -1.155514D+01
    4  -9.915512D+02   1.155514D+01

    5  -3.522357D+02  -3.296987D+00
    6   3.522357D+02   3.296987D+00

    7   1.912149D+02  -9.585122D-01
    8  -1.912149D+02   9.585122D-01

    9  -2.782495D+02  -1.017078D+00
   10   2.782495D+02   1.017078D+00

   11   2.139411D+01  -2.473005D-01
   12  -2.139411D+01   2.473005D-01

   13   1.577263D+02  -1.679127D-02
   14  -1.577263D+02   1.679127D-02

 ROOT:  1 RESIDUAL TOT: 2.48236D-02 CONF: 0.00000D+00 ORB: 2.48236D-02
          BNORM: 9.23415D+01 EIVAL: 0.00000D+00

 NUMBER OF TRIAL VECTORS IN THIS LOAD    1   OFFSET FOR THIS LOAD    0
    0 NON-CONVERGED SOLUTION VECTORS THIS LOAD, TOTAL:    0
    0 LINEAR INDEPENDENT TRIAL VECTORS ADDED TO PREVIOUS    0

 *** THE REQUESTED    1 SOLUTION VECTORS CONVERGED

 Convergence of RSP solution vectors, threshold = 1.00D-03
 ---------------------------------------------------------------
 (dimension of paired reduced space:   14)
 RSP solution vector no.    1; norm of residual   2.69D-04

 *** RSPCTL MICROITERATIONS CONVERGED

 EIGENVECTOR NUMBER     1

     The total double excitation out of the pair i,j

   i      j     1  Z oper.  Y oper.  2  Z oper.  Y oper.  3  Z oper.  Y oper.
  ---    ---   --- -------  ------- --- -------  ------- --- -------  -------

        15 elements with norm less than 0.00D+00 not printed

 The total norm of the excitation out of these elements is 0.0000D+00

 Index(2p2h)    i      j      a      b   Type    Z operator       Y operator
 -----------   ---    ---    ---    ---  ----  --------------   --------------

     6962 elements with absolute value ≤ 0.00D+00 are not printed.

 The numbers in parenthesis give the symmetry of the 2p-2h elements.

     Response orbital operator symmetry = 1
     (only scaled elements abs greater than   10.00 % of max abs value)

      Index(r,s)      r      s        (r s) operator      (s r) operator      (r s) scaled        (s r) scaled
      ----------    -----  -----      --------------      --------------      --------------      --------------
           1         1(1)   4(1)        1.5598704681       -1.5598704681        2.2059899715       -2.2059899715
           2         1(1)   5(1)       -0.8415882021        0.8415882021       -1.1901854494        1.1901854494
           3         1(1)   6(1)       -3.8776025033        3.8776025033       -5.4837580496        5.4837580496
           4         1(1)   7(1)        3.4335937889       -3.4335937889        4.8558349040       -4.8558349040
           5         1(1)   8(1)        6.5390456944       -6.5390456944        9.2476071060       -9.2476071060
           6         1(1)   9(1)        0.9637579763       -0.9637579763        1.3629596009       -1.3629596009
           8         1(1)  11(1)       -0.8355862676        0.8355862676       -1.1816974322        1.1816974322
          10         1(1)  13(1)        1.2144616017       -1.2144616017        1.7175080680       -1.7175080680
          11         1(1)  14(1)        2.0048368560       -2.0048368560        2.8352674721       -2.8352674721
          12         1(1)  15(1)       -0.9299306386        0.9299306386       -1.3151205212        1.3151205212
          14         1(1)  17(1)        1.7194416898       -1.7194416898        2.4316577575       -2.4316577575
          16         1(1)  19(1)      -11.4481669844       11.4481669844      -16.1901530136       16.1901530136
          17         1(1)  20(1)      -43.6326021664       43.6326021664      -61.7058177454       61.7058177454
          18         2(1)   4(1)       -9.9305087168        9.9305087168      -14.0438601085       14.0438601085
          19         2(1)   5(1)        3.2201430177       -3.2201430177        4.5539699284       -4.5539699284
          20         2(1)   6(1)       14.5272345711      -14.5272345711       20.5446121542      -20.5446121542
          21         2(1)   7(1)      -11.5003407354       11.5003407354      -16.2639378399       16.2639378399
          22         2(1)   8(1)      -19.3267688038       19.3267688038      -27.3321785591       27.3321785591
          23         2(1)   9(1)       -2.4656801693        2.4656801693       -3.4869983359        3.4869983359
          25         2(1)  11(1)        1.9236068769       -1.9236068769        2.7203909339       -2.7203909339
          27         2(1)  13(1)       -2.0976745334        2.0976745334       -2.9665597745        2.9665597745
          28         2(1)  14(1)       -3.1570125174        3.1570125174       -4.4646899187        4.4646899187
          29         2(1)  15(1)        1.2755691904       -1.2755691904        1.8039272488       -1.8039272488
          31         2(1)  17(1)       -1.6508543018        1.6508543018       -2.3346605431        2.3346605431
          33         2(1)  19(1)        9.3511760608       -9.3511760608       13.2245600094      -13.2245600094
          34         2(1)  20(1)       33.3092112244      -33.3092112244       47.1063382655      -47.1063382655
          35         3(1)   4(1)       -7.3184554886        7.3184554886      -10.3498590077       10.3498590077
          36         3(1)   5(1)       -0.1520886914        0.1520886914       -0.2150858901        0.2150858901
          37         3(1)   6(1)        1.9731987899       -1.9731987899        2.7905244899       -2.7905244899
          38         3(1)   7(1)       -2.9552074573        2.9552074573       -4.1792944658        4.1792944658
          39         3(1)   8(1)       -1.8974072107        1.8974072107       -2.6833390107        2.6833390107
          40         3(1)   9(1)       -0.3496932392        0.3496932392       -0.4945409215        0.4945409215
          42         3(1)  11(1)        0.3363537978       -0.3363537978        0.4756761026       -0.4756761026
          44         3(1)  13(1)       -0.2620515995        0.2620515995       -0.3705969260        0.3705969260
          45         3(1)  14(1)       -0.4668347060        0.4668347060       -0.6602039726        0.6602039726
          46         3(1)  15(1)        0.7158287491       -0.7158287491        1.0123347253       -1.0123347253
          48         3(1)  17(1)       -0.0966978411        0.0966978411       -0.1367513983        0.1367513983
          50         3(1)  19(1)        0.7540031520       -0.7540031520        1.0663214837       -1.0663214837
          51         3(1)  20(1)        2.8139750130       -2.8139750130        3.9795616275       -3.9795616275
          52        21(2)  22(2)       -0.8258133771        0.8258133771       -1.1678764779        1.1678764779
          53        21(2)  23(2)       -2.3758837018        2.3758837018       -3.3600069537        3.3600069537
          54        21(2)  24(2)       -0.4157159234        0.4157159234       -0.5879110970        0.5879110970
          57        21(2)  27(2)       -0.8177423265        0.8177423265       -1.1564622887        1.1564622887
          61        31(3)  32(3)       -0.8258133771        0.8258133771       -1.1678764779        1.1678764779
          62        31(3)  33(3)       -2.3758837018        2.3758837018       -3.3600069537        3.3600069537
          63        31(3)  34(3)       -0.4157159234        0.4157159234       -0.5879110970        0.5879110970
          66        31(3)  37(3)       -0.8177423265        0.8177423265       -1.1564622887        1.1564622887

       22 elements with absolute value ≤ 1.00D-01 not printed.

 The numbers in parenthesis give the orbital symmetry.


                 Solution vectors in RSPLR for operator FC F 002:
                 ------------------------------------------------


               Column   1     Column   2
    6963       1.55987047    -1.55987047
    6964      -0.84158820     0.84158820
    6965      -3.87760250     3.87760250
    6966       3.43359379    -3.43359379
    6967       6.53904569    -6.53904569
    6968       0.96375798    -0.96375798
    6970      -0.83558627     0.83558627
    6972       1.21446160    -1.21446160
    6973       2.00483686    -2.00483686
    6974      -0.92993064     0.92993064
    6976       1.71944169    -1.71944169
    6978     -11.44816698    11.44816698
    6979     -43.63260217    43.63260217
    6980      -9.93050872     9.93050872
    6981       3.22014302    -3.22014302
    6982      14.52723457   -14.52723457
    6983     -11.50034074    11.50034074
    6984     -19.32676880    19.32676880
    6985      -2.46568017     2.46568017
    6987       1.92360688    -1.92360688
    6989      -2.09767453     2.09767453
    6990      -3.15701252     3.15701252
    6991       1.27556919    -1.27556919
    6993      -1.65085430     1.65085430
    6995       9.35117606    -9.35117606
    6996      33.30921122   -33.30921122
    6997      -7.31845549     7.31845549
    6998      -0.15208869     0.15208869
    6999       1.97319879    -1.97319879
    7000      -2.95520746     2.95520746
    7001      -1.89740721     1.89740721
    7002      -0.34969324     0.34969324
    7004       0.33635380    -0.33635380
    7006      -0.26205160     0.26205160
    7007      -0.46683471     0.46683471
    7008       0.71582875    -0.71582875
    7010      -0.09669784     0.09669784
    7012       0.75400315    -0.75400315
    7013       2.81397501    -2.81397501
    7014      -0.82581338     0.82581338
    7015      -2.37588370     2.37588370
    7016      -0.41571592     0.41571592
    7017      -0.02257931     0.02257931
    7018       0.02093963    -0.02093963
    7019      -0.81774233     0.81774233
    7020      -0.05447562     0.05447562
    7022       0.03958599    -0.03958599
    7023      -0.82581338     0.82581338
    7024      -2.37588370     2.37588370
    7025      -0.41571592     0.41571592
    7026      -0.02257931     0.02257931
    7027       0.02093963    -0.02093963
    7028      -0.81774233     0.81774233
    7029      -0.05447562     0.05447562
    7031       0.03958599    -0.03958599
    ==== End of matrix output ====
 Norm:     9.2341D+01


                 Residual vectors in RSPLR for operator FC F 002:
                 ------------------------------------------------


               Column   1     Column   2
    6963       0.00418754    -0.00418754
    6964      -0.00739690     0.00739690
    6965      -0.00722027     0.00722027
    6966       0.00187089    -0.00187089
    6967      -0.00444808     0.00444808
    6968      -0.00120463     0.00120463
    6970      -0.00102142     0.00102142
    6972      -0.00019570     0.00019570
    6973      -0.00621897     0.00621897
    6974      -0.00194363     0.00194363
    6976      -0.00060552     0.00060552
    6978       0.00133092    -0.00133092
    6979       0.00321619    -0.00321619
    6980       0.00083190    -0.00083190
    6981      -0.00029612     0.00029612
    6982      -0.00138956     0.00138956
    6983      -0.00032276     0.00032276
    6984       0.00057617    -0.00057617
    6985       0.00136630    -0.00136630
    6987      -0.00150067     0.00150067
    6989       0.00068807    -0.00068807
    6990      -0.00027195     0.00027195
    6991      -0.00216923     0.00216923
    6993       0.00015478    -0.00015478
    6995       0.00287788    -0.00287788
    6996       0.00482245    -0.00482245
    6997      -0.00042414     0.00042414
    6998       0.00172069    -0.00172069
    6999       0.00084267    -0.00084267
    7000      -0.00197159     0.00197159
    7001      -0.00155963     0.00155963
    7002       0.00183160    -0.00183160
    7004      -0.00270295     0.00270295
    7006       0.00090067    -0.00090067
    7007       0.00080936    -0.00080936
    7008       0.00025447    -0.00025447
    7010      -0.00056464     0.00056464
    7012       0.00034013    -0.00034013
    7013      -0.00121882     0.00121882
    7014       0.00007640    -0.00007640
    7015      -0.00068205     0.00068205
    7016       0.00354252    -0.00354252
    7017      -0.00068815     0.00068815
    7018       0.00020472    -0.00020472
    7019      -0.00043255     0.00043255
    7020       0.00108942    -0.00108942
    7022      -0.00154725     0.00154725
    7023       0.00007640    -0.00007640
    7024      -0.00068205     0.00068205
    7025       0.00354252    -0.00354252
    7026      -0.00068815     0.00068815
    7027       0.00020472    -0.00020472
    7028      -0.00043255     0.00043255
    7029       0.00108942    -0.00108942
    7031      -0.00154725     0.00154725
    ==== End of matrix output ====
 Norm:     2.4824D-02


           Final output of second order properties from linear response
           ------------------------------------------------------------


@ Spin symmetry of operators: triplet

 Note that minus the linear response function: - << A; B >>(omega) is printed.
 The results are of quadratic accuracy using Sellers formula.


 Output from PRPCTL:
 ===================

 Property label = FC H 001


PRPCTL test output:  Reference state expectation value for FC H 001

 *** Individual non-zero orbital contributions
 *** to the expectation value for property FC H 001 :


     FC H 001 Hartree-Fock part:     0.00000000
     FC H 001 second order part:     0.49614417
     FC H 001 total 2. order   :     0.49614417

 (PRPORS) Z and Y property GP vector in SOPPA approximation

               Column   1     Column   2
    6963       0.00033112    -0.00033112
    6964       0.00033541    -0.00033541
    6965      -0.00002011     0.00002011
    6966       0.00004609    -0.00004609
    6967      -0.00010442     0.00010442
    6968      -0.00101626     0.00101626
    6970      -0.00105622     0.00105622
    6972       0.00014475    -0.00014475
    6973       0.00020957    -0.00020957
    6974       0.00002414    -0.00002414
    6976       0.00004765    -0.00004765
    6978      -0.00007756     0.00007756
    6979       0.00004975    -0.00004975
    6980       0.10771613    -0.10771613
    6981       0.11384986    -0.11384986
    6982      -0.00685814     0.00685814
    6983       0.01606779    -0.01606779
    6984      -0.03576231     0.03576231
    6985      -0.34954570     0.34954570
    6987      -0.36343222     0.36343222
    6989       0.04983878    -0.04983878
    6990       0.07210699    -0.07210699
    6991       0.00842078    -0.00842078
    6993       0.01640753    -0.01640753
    6995      -0.02670482     0.02670482
    6996       0.01710766    -0.01710766
    6997      -1.73143009     1.73143009
    6998      -1.78571429     1.78571429
    6999       0.10727436    -0.10727436
    7000      -0.24824427     0.24824427
    7001       0.55808613    -0.55808613
    7002       5.44145965    -5.44145965
    7004       5.65637636    -5.65637636
    7006      -0.77538813     0.77538813
    7007      -1.12228126     1.12228126
    7008      -0.13004850     0.13004850
    7010      -0.25526126     0.25526126
    7012       0.41546250    -0.41546250
    7013      -0.26635762     0.26635762
    ==== End of matrix output ====


 Output from PRPCTL:
 ===================

 Property label = FC F 002


PRPCTL test output:  Reference state expectation value for FC F 002

 *** Individual non-zero orbital contributions
 *** to the expectation value for property FC F 002 :


     FC F 002 Hartree-Fock part:     0.00000000
     FC F 002 second order part:    -0.47700808
     FC F 002 total 2. order   :    -0.47700808

 (PRPORS) Z and Y property GP vector in SOPPA approximation

               Column   1     Column   2
    6963     6.743771E+01  -6.743771E+01
    6964    -4.270272E+01   4.270272E+01
    6965    -1.780440E+02   1.780440E+02
    6966     1.564928E+02  -1.564928E+02
    6967     2.910149E+02  -2.910149E+02
    6968     4.708667E+01  -4.708667E+01
    6970    -4.014021E+01   4.014021E+01
    6972     6.157283E+01  -6.157283E+01
    6973     1.020523E+02  -1.020523E+02
    6974    -5.498589E+01   5.498589E+01
    6976     1.050806E+02  -1.050806E+02
    6978    -7.383892E+02   7.383892E+02
    6979    -2.913445E+03   2.913445E+03
    6980    -1.542772E+01   1.542772E+01
    6981     9.773152E+00  -9.773152E+00
    6982     4.074317E+01  -4.074317E+01
    6983    -3.581177E+01   3.581177E+01
    6984    -6.659441E+01   6.659441E+01
    6985    -1.077543E+01   1.077543E+01
    6987     9.185602E+00  -9.185602E+00
    6989    -1.409015E+01   1.409015E+01
    6990    -2.335330E+01   2.335330E+01
    6991     1.258281E+01  -1.258281E+01
    6993    -2.404638E+01   2.404638E+01
    6995     1.689711E+02  -1.689711E+02
    6996     6.667059E+02  -6.667059E+02
    6997    -1.121798E+00   1.121798E+00
    6998     7.105130E-01  -7.105130E-01
    6999     2.962196E+00  -2.962196E+00
    7000    -2.603653E+00   2.603653E+00
    7001    -4.841711E+00   4.841711E+00
    7002    -7.834112E-01   7.834112E-01
    7004     6.678308E-01  -6.678308E-01
    7006    -1.024413E+00   1.024413E+00
    7007    -1.697884E+00   1.697884E+00
    7008     9.148233E-01  -9.148233E-01
    7010    -1.748272E+00   1.748272E+00
    7012     1.228490E+01  -1.228490E+01
    7013     4.847227E+01  -4.847227E+01
    ==== End of matrix output ====

@ FREQUENCY INDEPENDENT SECOND ORDER PROPERTIES

@ -<< FC H 001 ; FC H 001 >> =  9.865945488107E+01
@ -<< FC H 001 ; FC F 002 >> =  2.578296479571E+01
@ -<< FC F 002 ; FC F 002 >> =  3.321628970936E+05


 Time used in linear response calculation is      0.05 CPU seconds for symmetry 1

  Total CPU  time used in RESPONSE:   0.11 seconds
  Total wall time used in RESPONSE:   0.11 seconds


                   .-------------------------------------------.
                   | End of Dynamic Property Section (RESPONS) |
                   `-------------------------------------------'

  Total CPU  time used in DALTON:   0.18 seconds
  Total wall time used in DALTON:   0.20 seconds

 
     Date and time (Linux)  : Thu Jun 22 08:31:59 2023
     Host name              : fer                                     
