[Molden Format]
made by pyscf v[2.0.1]
[Atoms] (AU)
C   1   6     1.42440815769361    -0.07461485053628     0.00000000000000
C   2   6    -1.42440815769361     0.07461485053628     0.00000000000000
F   3   9     2.29491075567801     1.12238969544324     2.04299402542382
F   4   9     2.29491075567801     1.12238969544324    -2.04299402542382
F   5   9    -2.29491075567801    -1.12238969544324     2.04299402542382
F   6   9    -2.29491075567801    -1.12238969544324    -2.04299402542382
H   7   1     2.09173706531240    -2.01549714120482     0.00000000000000
H   8   1    -2.09173706531240     2.01549714120482     0.00000000000000
[GTO]
1 0
 s    8 1.00
                  6665  0.00069158396281299
                  1000  0.0053257961529341
                   228   0.027060721042034
                 64.71    0.10165684614077
                 21.06     0.2745748236174
                 7.495    0.44829431892377
                 2.797    0.28490261071525
                0.5215   0.015194859206082
 s    8 1.00
                  6665  -0.00029326965268655
                  1000  -0.0023180354739745
                   228  -0.011499786038565
                 64.71  -0.046826727009787
                 21.06   -0.12846616875047
                 7.495   -0.30126627246289
                 2.797   -0.25563070233011
                0.5215      1.093793361012
 s    1 1.00
                0.1596                   1
 p    3 1.00
                 9.439   0.056979251590039
                 2.002    0.31320721150073
                0.5456    0.76037674173753
 p    1 1.00
                0.1517                   1
 d    1 1.00
                  0.55                   1

2 0
 s    8 1.00
                  6665  0.00069158396281299
                  1000  0.0053257961529341
                   228   0.027060721042034
                 64.71    0.10165684614077
                 21.06     0.2745748236174
                 7.495    0.44829431892377
                 2.797    0.28490261071525
                0.5215   0.015194859206082
 s    8 1.00
                  6665  -0.00029326965268655
                  1000  -0.0023180354739745
                   228  -0.011499786038565
                 64.71  -0.046826727009787
                 21.06   -0.12846616875047
                 7.495   -0.30126627246289
                 2.797   -0.25563070233011
                0.5215      1.093793361012
 s    1 1.00
                0.1596                   1
 p    3 1.00
                 9.439   0.056979251590039
                 2.002    0.31320721150073
                0.5456    0.76037674173753
 p    1 1.00
                0.1517                   1
 d    1 1.00
                  0.55                   1

3 0
 s    8 1.00
                 14710  0.00072067370873197
                  2207  0.0055504869689163
                 502.8   0.028254207662589
                 142.6    0.10639582836653
                 46.47    0.28668420124307
                  16.7    0.44843796582416
                 6.356    0.26464118141135
                 1.316   0.015326060993048
 s    8 1.00
                 14710  -0.00032119389049893
                  2207  -0.0025461915683188
                 502.8  -0.012643359507821
                 142.6   -0.05195749170489
                 46.47   -0.14344713812646
                  16.7   -0.33243762329603
                 6.356   -0.21865906750347
                 1.316     1.0955904138622
 s    1 1.00
                0.3897                   1
 p    3 1.00
                 22.67   0.064834021493887
                 4.977    0.34053535983101
                 1.347    0.73464640679382
 p    1 1.00
                0.3471                   1
 d    1 1.00
                  1.64                   1

4 0
 s    8 1.00
                 14710  0.00072067370873197
                  2207  0.0055504869689163
                 502.8   0.028254207662589
                 142.6    0.10639582836653
                 46.47    0.28668420124307
                  16.7    0.44843796582416
                 6.356    0.26464118141135
                 1.316   0.015326060993048
 s    8 1.00
                 14710  -0.00032119389049893
                  2207  -0.0025461915683188
                 502.8  -0.012643359507821
                 142.6   -0.05195749170489
                 46.47   -0.14344713812646
                  16.7   -0.33243762329603
                 6.356   -0.21865906750347
                 1.316     1.0955904138622
 s    1 1.00
                0.3897                   1
 p    3 1.00
                 22.67   0.064834021493887
                 4.977    0.34053535983101
                 1.347    0.73464640679382
 p    1 1.00
                0.3471                   1
 d    1 1.00
                  1.64                   1

5 0
 s    8 1.00
                 14710  0.00072067370873197
                  2207  0.0055504869689163
                 502.8   0.028254207662589
                 142.6    0.10639582836653
                 46.47    0.28668420124307
                  16.7    0.44843796582416
                 6.356    0.26464118141135
                 1.316   0.015326060993048
 s    8 1.00
                 14710  -0.00032119389049893
                  2207  -0.0025461915683188
                 502.8  -0.012643359507821
                 142.6   -0.05195749170489
                 46.47   -0.14344713812646
                  16.7   -0.33243762329603
                 6.356   -0.21865906750347
                 1.316     1.0955904138622
 s    1 1.00
                0.3897                   1
 p    3 1.00
                 22.67   0.064834021493887
                 4.977    0.34053535983101
                 1.347    0.73464640679382
 p    1 1.00
                0.3471                   1
 d    1 1.00
                  1.64                   1

6 0
 s    8 1.00
                 14710  0.00072067370873197
                  2207  0.0055504869689163
                 502.8   0.028254207662589
                 142.6    0.10639582836653
                 46.47    0.28668420124307
                  16.7    0.44843796582416
                 6.356    0.26464118141135
                 1.316   0.015326060993048
 s    8 1.00
                 14710  -0.00032119389049893
                  2207  -0.0025461915683188
                 502.8  -0.012643359507821
                 142.6   -0.05195749170489
                 46.47   -0.14344713812646
                  16.7   -0.33243762329603
                 6.356   -0.21865906750347
                 1.316     1.0955904138622
 s    1 1.00
                0.3897                   1
 p    3 1.00
                 22.67   0.064834021493887
                 4.977    0.34053535983101
                 1.347    0.73464640679382
 p    1 1.00
                0.3471                   1
 d    1 1.00
                  1.64                   1

7 0
 s    3 1.00
                 13.01   0.033498726389998
                 1.962    0.23480080117413
                0.4446     0.8136829578829
 s    1 1.00
                 0.122                   1
 p    1 1.00
                 0.727                   1

8 0
 s    3 1.00
                 13.01   0.033498726389998
                 1.962    0.23480080117413
                0.4446     0.8136829578829
 s    1 1.00
                 0.122                   1
 p    1 1.00
                 0.727                   1

[5d]
[7f]
[9g]

[MO]
 Sym= A
 Ene=               0
 Spin= Alpha
 Occup=    1.00000
   1       1.0019103549471
   2    0.0042194648024578
   3    -0.0073945961227696
   4    0.00064925389051885
   5    0.0010887664044393
   6    3.2112307822374e-09
   7    0.0016231160811614
   8    0.00065915021788341
   9    1.4132937602868e-09
  10    0.00033112030631802
  11    6.6678637377449e-11
  12    7.7978407089191e-11
  13    -8.2738674205647e-05
  14    0.00012433997679978
  15    -0.00020926315540683
  16    7.8104345234478e-05
  17     0.003167905023051
  18    0.0004761883835143
  19    -1.5773435161782e-05
  20    2.2038680231316e-09
  21    0.0015125942412746
  22    -0.00052332904287095
  23    3.4859203376927e-10
  24    -5.2409980981649e-05
  25    1.4263048950203e-10
  26    -3.2432568548838e-10
  27    6.6693523520421e-05
  28    -0.00010291331879411
  29    0.00015382612399316
  30    0.00067283789951901
  31    -0.00014272576627473
  32    -8.0188086549589e-05
  33    -0.00013822842169044
  34    -0.00030688251312871
  35    0.00015331895309155
  36    0.00039591556788904
  37    0.00077998578764826
  38    -9.6047372752535e-05
  39    -7.6610416497029e-05
  40    -0.00011090038573281
  41    4.6274318088105e-06
  42    -3.0294600737575e-05
  43    0.00015382915044927
  44    0.00067283307268702
  45    -0.00014272955365571
  46    -8.0180948675757e-05
  47    -0.00013821561973669
  48    0.00030688995337644
  49    0.00015332372723862
  50    0.00039592413287507
  51    -0.00077998013963176
  52    -9.6047125076334e-05
  53    7.6610534992658e-05
  54    0.00011090060611366
  55    4.6275153122118e-06
  56    -3.0294864630429e-05
  57    -5.0450843298849e-06
  58    -5.5734197246393e-07
  59    -0.0001670237725775
  60     2.33191051916e-06
  61    -8.4607665997925e-06
  62    -1.1174126166444e-05
  63    8.4521803907882e-05
  64    3.5298453346125e-05
  65    9.1593470160032e-05
  66    -1.1435568284467e-05
  67    -1.1132664859295e-05
  68    -1.3003502002694e-05
  69    2.8714170103789e-05
  70    9.369353989741e-06
  71    -5.0442872836048e-06
  72    -5.5819617906911e-07
  73    -0.00016702411742957
  74    2.3244257002447e-06
  75    -8.4630547209209e-06
  76    1.1174614694621e-05
  77    8.451668488767e-05
  78    3.5296999034291e-05
  79    -9.1592849372749e-05
  80    -1.1435497939781e-05
  81    1.113251148308e-05
  82    1.300341855161e-05
  83    2.8714125690509e-05
  84    9.3692044378391e-06
  85    0.00097215487908655
  86    0.0015387428707363
  87    -0.00021934777861074
  88    7.7689243084635e-05
  89    2.7266592747179e-11
  90    -5.0595357614575e-05
  91     0.000438794149179
  92    9.7047511174915e-05
  93    -2.5940660655152e-05
  94    6.3673422811424e-11
 Sym= A
 Ene=               1
 Spin= Alpha
 Occup=    1.00000
   1    -0.00020926042463906
   2    7.8107391856961e-05
   3    0.0031679065381642
   4    -0.00047618940315669
   5    1.5771046947945e-05
   6    2.3023490455672e-09
   7    -0.0015125946911984
   8    0.00052332857267882
   9    4.7943393854338e-10
  10    -5.2409973287593e-05
  11    -1.3644130226259e-10
  12    3.6576102773007e-10
  13    6.6693315429218e-05
  14    -0.0001029133787818
  15       1.0019103549231
  16    0.0042194591558464
  17    -0.007394597704947
  18    -0.00064924897353738
  19    -0.0010887689752419
  20    4.6264194524275e-09
  21    -0.0016231148534491
  22    -0.00065915199159501
  23    1.3887857768451e-09
  24    0.00033111976813933
  25    -7.5702372744338e-11
  26    -4.3225007910232e-10
  27    -8.2738514873416e-05
  28    0.00012433968349459
  29    -5.0458347312351e-06
  30    -5.567293370643e-07
  31    -0.00016702325613395
  32    -2.332813913489e-06
  33    8.4620468793074e-06
  34    -1.1174170283271e-05
  35    -8.4522350066343e-05
  36    -3.5297414991915e-05
  37    9.1593435540798e-05
  38    -1.1435572442789e-05
  39    1.1132699168669e-05
  40    1.3003512390897e-05
  41    2.8714173585685e-05
  42    9.3693740547508e-06
  43    -5.044303078521e-06
  44    -5.5855098433094e-07
  45    -0.00016702458292429
  46    -2.3262153227262e-06
  47     8.46362721119e-06
  48    1.1174033793684e-05
  49    -8.4517840095393e-05
  50    -3.5296487329965e-05
  51    -9.1593250607593e-05
  52    -1.1435522791946e-05
  53    -1.1132551317416e-05
  54    -1.3003428674122e-05
  55    2.871412680949e-05
  56    9.3692348333146e-06
  57    0.00015382896951534
  58    0.00067283699736565
  59    -0.00014272672523383
  60    8.0190351390279e-05
  61    0.00013822343357989
  62    -0.00030688166063816
  63    -0.00015331758252034
  64    -0.00039591870348272
  65    0.00077998626371276
  66    -9.6047438535989e-05
  67    7.6610383080669e-05
  68    0.0001109005853666
  69    4.627557828325e-06
  70    -3.0294626075681e-05
  71    0.00015383006760698
  72    0.00067283215813918
  73    -0.00014273024653937
  74    8.0179223702462e-05
  75    0.00013821176444215
  76    0.00030688595491292
  77    -0.0001533250570235
  78    -0.00039592638814401
  79    -0.00077998267052113
  80    -9.6047240704483e-05
  81    -7.6610617132809e-05
  82    -0.00011090085325855
  83    4.6276034695362e-06
  84    -3.0294941056008e-05
  85    -5.0592258235728e-05
  86     0.000438794818465
  87    -9.704766182083e-05
  88    2.5940933640723e-05
  89    7.0735202296152e-11
  90    0.00097214956311339
  91    0.0015387423640444
  92    0.00021934766434261
  93    -7.7688644751839e-05
  94    8.897149113074e-11
 Sym= A
 Ene=               2
 Spin= Alpha
 Occup=    1.00000
   1    -0.0001756067250519
   2    0.00030365817564484
   3    0.0034940706054969
   4    0.00042172043952688
   5    0.00048555067422238
   6    0.00080934150830576
   7    -0.00011783610005288
   8    0.0010957369676508
   9    0.0012135011405248
  10    6.6063006800014e-05
  11    8.7666209910074e-05
  12    9.4758306438575e-05
  13    5.5950336987582e-06
  14    6.002048889113e-05
  15    4.2977476787321e-05
  16    4.6157664435883e-05
  17    -0.0012454702410305
  18    -0.00014088891420932
  19     2.02648143715e-05
  20    1.8899016687278e-05
  21    -0.00068049381140788
  22    -0.0002007333858954
  23    -0.00016727282402992
  24    6.1265839040604e-05
  25    -3.2799112727031e-06
  26    3.1104230701566e-05
  27    -6.2733429883065e-05
  28    -1.4952225272129e-05
  29       1.0010273512291
  30    0.00083553247215959
  31    -0.0057309639798916
  32    -0.00080080391162428
  33    -0.0011118809861886
  34    -0.0019104157813569
  35    0.00028917056913153
  36    0.00025776086541807
  37    0.00055511863250319
  38    -6.7505443808287e-05
  39    -6.4534299108892e-05
  40    -8.3623934712114e-05
  41    1.9237487067325e-05
  42    -4.4770086988819e-05
  43    8.6498244052552e-05
  44    0.00014200716933146
  45    -0.0006314643297289
  46    5.971165135767e-06
  47    4.1421152194145e-05
  48    -3.5163972399458e-05
  49    1.8008859590672e-05
  50    -0.00015006508993816
  51    -0.00040006132507824
  52    -2.2768205721088e-05
  53    1.1070966777525e-05
  54    6.070913081795e-07
  55    -6.9418539984663e-06
  56    1.3417870177526e-05
  57    2.6860228110835e-05
  58    5.3095454314874e-05
  59    -4.9034644922507e-05
  60    1.8046767246045e-05
  61    -1.6306510311149e-05
  62    -2.3698590691927e-06
  63    -7.3000664127543e-05
  64    2.9274463705311e-05
  65    -5.2207084654531e-06
  66    1.1148885986117e-05
  67    6.8683198686874e-07
  68    2.1680745464077e-06
  69    -1.6992622933928e-05
  70    -9.6301960602417e-06
  71    -2.5742427988797e-05
  72    -4.6269029027908e-05
  73    0.00011321675319793
  74    -2.4067605126633e-05
  75    4.5548032032362e-07
  76    9.0910556947937e-06
  77    0.00017919061200819
  78    1.7877954369834e-05
  79    9.5255858162885e-06
  80    -3.1315360402049e-06
  81    -2.4412774940754e-06
  82    -1.1444689528919e-06
  83    1.3196581074057e-07
  84    -3.3513611650373e-06
  85    -0.00022526279833206
  86    -5.7904775152483e-05
  87    -1.5246225872761e-05
  88    -9.3142791865859e-05
  89    -0.00013920865170791
  90      8.4458708079e-05
  91    -8.6814859570106e-05
  92    -5.8750296417453e-05
  93    9.9051917286277e-06
  94    -1.3099869591264e-05
 Sym= A
 Ene=               3
 Spin= Alpha
 Occup=    1.00000
   1    4.2990292157623e-05
   2    4.6219861376167e-05
   3    -0.0012454933158979
   4    0.0001408480742003
   5    -2.0334096124099e-05
   6    -1.8963789176225e-05
   7    0.00068060418619824
   8    0.00020053778092797
   9    0.00016732829066908
  10    6.1254391873102e-05
  11    -3.2272893489844e-06
  12    3.1107043901504e-05
  13    -6.2712958744177e-05
  14    -1.4917528173177e-05
  15    -0.00017547175059302
  16    0.00030470097388253
  17     0.003494353486652
  18    -0.00042221620543866
  19    -0.0004862512684331
  20    -0.00081052985614113
  21    0.00011785596658745
  22    -0.0010955993753072
  23    -0.0012136059335913
  24    6.6105618081418e-05
  25    8.7744982008267e-05
  26    9.4812007808314e-05
  27    5.6302869043051e-06
  28    6.0047916600873e-05
  29    -2.5735292300751e-05
  30    -4.6251650957911e-05
  31    0.0001132316670745
  32    2.4012937194599e-05
  33    -4.5442912529616e-07
  34    -9.1075940889841e-06
  35    -0.00017923182054872
  36    -1.7846440271554e-05
  37    -9.5399767336347e-06
  38    -3.1315079584041e-06
  39    -2.4422968834862e-06
  40    -1.1462923588445e-06
  41    1.3092370088222e-07
  42    -3.3514210995374e-06
  43    2.685186112178e-05
  44    5.3082134510352e-05
  45    -4.8952613051948e-05
  46    -1.8048844041228e-05
  47    1.6312590105205e-05
  48    2.3550988095474e-06
  49    7.2983170785476e-05
  50    -2.9255559593909e-05
  51    5.2427011080452e-06
  52    1.1148471967986e-05
  53    6.8635327172783e-07
  54    2.1662980297202e-06
  55    -1.6992565205364e-05
  56    -9.6289624193684e-06
  57    8.6492236341168e-05
  58    0.00014195999573888
  59    -0.00063144498356675
  60    -5.9602320303652e-06
  61    -4.1405370537235e-05
  62    3.5254533497308e-05
  63    -1.7990364030579e-05
  64    0.00015008322533482
  65    0.00040013522375175
  66    -2.2748045142918e-05
  67    1.1070019925277e-05
  68    6.0451927226058e-07
  69    -6.9386619387686e-06
  70    1.3411531028494e-05
  71       1.0010273521264
  72    0.00082974945160827
  73    -0.0057378066105755
  74    0.00080163061896686
  75    0.0011146960634062
  76    0.0019138533250578
  77    -0.00028865049475475
  78    -0.00025586855382101
  79    -0.00055282384576708
  80    -6.7450441231836e-05
  81    -6.4486392544766e-05
  82    -8.3531173239511e-05
  83    1.9213742728815e-05
  84    -4.4733882141444e-05
  85    8.4476470894104e-05
  86    -8.7007524147915e-05
  87    5.8751110272629e-05
  88    -9.9062901752562e-06
  89    1.3093853931243e-05
  90    -0.00022534768249672
  91    -5.8226975893467e-05
  92    1.5220892696689e-05
  93    9.3118019090815e-05
  94    0.00013917161562014
 Sym= A
 Ene=               4
 Spin= Alpha
 Occup=    1.00000
   1    -0.00017554348465384
   2    0.00030413746562786
   3    0.0034941961656353
   4    0.00042194402793751
   5    0.00048586702778096
   6    -0.00080990876590775
   7    -0.00011785586059545
   8    0.0010956512563175
   9    -0.0012135719287709
  10    6.6104955471596e-05
  11    -8.7695710814656e-05
  12    -9.4771078396215e-05
  13    5.6169168267265e-06
  14    6.0023721927763e-05
  15    4.2981377449315e-05
  16    4.617884798194e-05
  17    -0.0012454833167952
  18    -0.00014088155722859
  19    2.0299318310623e-05
  20    -1.89253224311e-05
  21    -0.00068055511414451
  22    -0.0002006287575609
  23    0.00016729976622235
  24    6.1261446025121e-05
  25    3.2553164687082e-06
  26    -3.1107347755294e-05
  27    -6.2724414914061e-05
  28    -1.493585860854e-05
  29    8.6494031948335e-05
  30    0.00014199020852161
  31    -0.00063142976006187
  32    5.9551771163665e-06
  33    4.1390341134795e-05
  34    3.5175294020594e-05
  35    1.7991758942463e-05
  36    -0.00015009019083975
  37    0.0004000682495533
  38    -2.2758775000518e-05
  39    -1.1070086193185e-05
  40    -6.0517271309653e-07
  41    -6.9402667304501e-06
  42    1.3414770071557e-05
  43       1.0010273520653
  44    0.00083273163899722
  45    -0.0057342701332504
  46    -0.000801372807821
  47    -0.0011135085110702
  48    0.0019117919447632
  49    0.0002888004280811
  50    0.00025666030629572
  51    -0.00055420305214217
  52    -6.7487554564245e-05
  53    6.4510940088207e-05
  54    8.3577942761361e-05
  55    1.9224756099709e-05
  56    -4.4748574097012e-05
  57    -2.5738659318379e-05
  58    -4.6261031844821e-05
  59    0.00011322576748879
  60    -2.4026336948104e-05
  61    4.558553612385e-07
  62    -9.1033035280635e-06
  63    0.00017922261964945
  64    1.7862983447428e-05
  65    -9.5356892906924e-06
  66    -3.131416447182e-06
  67    2.4416868144978e-06
  68    1.1451758214408e-06
  69    1.3139741337752e-07
  70    -3.3512518467946e-06
  71    2.6855006960627e-05
  72    5.3085438226943e-05
  73    -4.8995717752145e-05
  74    1.8040918065115e-05
  75    -1.6312594421966e-05
  76    2.3623632172581e-06
  77    -7.2994606397994e-05
  78    2.9263119971135e-05
  79    5.2298632396064e-06
  80    1.1148507288841e-05
  81    -6.8704139531917e-07
  82    -2.1674286432771e-06
  83    -1.6992372763053e-05
  84    -9.6295355463712e-06
  85    -0.00022532223351323
  86    -5.8072820615339e-05
  87    -1.5234713773592e-05
  88    -9.313117588789e-05
  89    0.00013919232328961
  90    8.4466037487273e-05
  91    -8.6914105550119e-05
  92    -5.8751312998273e-05
  93    9.9061500916469e-06
  94    1.3097546956082e-05
 Sym= A
 Ene=               5
 Spin= Alpha
 Occup=    1.00000
   1    4.2982686698555e-05
   2    4.6183253382093e-05
   3     -0.00124550618151
   4    0.00014087485925487
   5    -2.0298527128201e-05
   6    1.8931794665739e-05
   7    0.0006805369698037
   8    0.00020067158054654
   9    -0.00016728054367164
  10    6.126027595339e-05
  11    3.2621190910889e-06
  12    -3.110417942848e-05
  13    -6.2725965759188e-05
  14    -1.494141032495e-05
  15    -0.00017555887255996
  16    0.00030404597940627
  17    0.0034941988909597
  18    -0.0004218999097299
  19    -0.00048580039067449
  20    0.00080971706810105
  21    0.00011785056089906
  22    -0.0010957070809194
  23    0.0012135135220635
  24    6.6052502423232e-05
  25    -8.7681194355902e-05
  26    -9.4782050152835e-05
  27    5.5930416067231e-06
  28    6.0033461919345e-05
  29    2.685769980437e-05
  30    5.3092537956593e-05
  31    -4.9009810940416e-05
  32    -1.8061306610767e-05
  33    1.6305908689041e-05
  34    -2.3609050630603e-06
  35     7.29863422208e-05
  36    -2.926856513354e-05
  37    -5.2271427896967e-06
  38    1.1148650697582e-05
  39    -6.8635821658068e-07
  40    -2.167302315686e-06
  41    -1.699277139953e-05
  42    -9.6296692071061e-06
  43    -2.5740288836595e-05
  44    -4.6269384473181e-05
  45    0.00011322071345913
  46    2.4072251302882e-05
  47    -4.529369656366e-07
  48    9.0913229361917e-06
  49    -0.00017918745956075
  50    -1.7867329059929e-05
  51    9.5294955187964e-06
  52    -3.1315573154174e-06
  53    2.4422638682593e-06
  54    1.1452852941543e-06
  55    1.3129684724076e-07
  56    -3.3519218888207e-06
  57       1.0010273524662
  58    0.00083335246107737
  59    -0.0057335339125446
  60    0.00080116470199801
  61    0.0011124844027997
  62    -0.0019118233602549
  63    -0.00028893863517312
  64    -0.0002573613897015
  65    0.00055417348586489
  66    -6.7480334502826e-05
  67    6.4515234910044e-05
  68    8.3596661445553e-05
  69    1.9233519163871e-05
  70    -4.4760451423069e-05
  71    8.649437005295e-05
  72    0.00014199949329078
  73    -0.00063147519168899
  74    -6.0055098922449e-06
  75    -4.1464477359043e-05
  76    -3.5140337261708e-05
  77    -1.8033083204898e-05
  78    0.00015003438026318
  79    -0.00040005663374709
  80    -2.2759100214839e-05
  81    -1.1070333148716e-05
  82    -6.060178021245e-07
  83    -6.9411301393488e-06
  84    1.3415332711798e-05
  85    8.4475788721312e-05
  86    -8.6864701135967e-05
  87    5.8748947980958e-05
  88    -9.9045589844834e-06
  89    -1.3097510911842e-05
  90    -0.00022524483418214
  91    -5.798613843244e-05
  92    1.5236132914551e-05
  93    9.3133568023683e-05
  94    -0.00013919456105447
 Sym= A
 Ene=               6
 Spin= Alpha
 Occup=    1.00000
   1    -0.0020541904332936
   2    -0.032527924091901
   3    -0.078174951582528
   4     0.044092874278693
   5    0.0053479611645895
   6     0.001754240274817
   7     0.024761875994824
   8    0.0028046816407574
   9     0.028279100879943
  10    0.0016622809522859
  11    0.00051089485693041
  12    -0.0022172470457903
  13    -0.0011425278657982
  14    -0.00055709976733669
  15    -0.0027414774358582
  16    -0.0029434530874084
  17     0.013835602451275
  18    0.00029568839892012
  19    -0.00025676348130233
  20    -0.0019472551341974
  21     0.031540195068486
  22      -0.0112640925219
  23     -0.02162613457733
  24    -0.0023857760030906
  25      0.02507457905501
  26    -0.018940646199646
  27    -0.027240077828351
  28    -0.0073303295669841
  29    0.00047916674672974
  30    0.0005143824057979
  31    -0.0048581543116062
  32    -0.00035294186558793
  33    0.0022757691598921
  34    -0.0022459037233643
  35    -0.0033195469224152
  36    0.0027325426719071
  37    -0.0027464829868082
  38    0.0001064146204882
  39    -0.00063213654474116
  40    -0.00021734872965239
  41    -4.897427950847e-05
  42    -9.0748240150583e-05
  43    -0.0013812881988384
  44    0.0016154760767175
  45      0.02142324511439
  46    -0.0081831476479016
  47    -0.0067401020811347
  48    0.0073371486533313
  49    -0.0078403943556896
  50    -0.0091497642453326
  51    0.0087192464290119
  52    0.00041916401415721
  53    0.00050244692991777
  54    -0.00022862748922006
  55    -0.00042350021723338
  56    -0.00040990056218835
  57    -0.0016161808703512
  58    0.00088698366422849
  59     0.014503479728933
  60      0.51811111804486
  61     -0.42188524519332
  62    -0.026368978401948
  63      0.36048849150735
  64     -0.29089746372348
  65    -0.020302351873952
  66    0.00046083740311305
  67    -0.0092105176965651
  68    0.0069045944110144
  69    0.0081424194934542
  70    0.0016322800193756
  71    0.00086039168367923
  72    0.00029460000317981
  73    -0.010484178135357
  74    -0.002918127443192
  75    0.0015739564640071
  76    -0.0023277583161041
  77    -0.0051151716150016
  78    -0.00032512916002637
  79    -0.002140460174369
  80    1.6152579941844e-05
  81    0.00031345960714431
  82    -0.00032384620624393
  83    -0.00072385039594749
  84    -0.00016208214340422
  85    -0.0069898065578893
  86     0.025899955957079
  87    -0.0010080854573171
  88    -0.00014443365744336
  89    -0.00032823692230248
  90     0.051505730505597
  91     0.048143934976753
  92    -0.0019870140103903
  93    -0.00068075654537362
  94    0.0031159301237346
 Sym= A
 Ene=               7
 Spin= Alpha
 Occup=    1.00000
   1    -0.0020542469285021
   2    -0.032528292750303
   3    -0.078174871303706
   4      0.04409313506296
   5    0.0053479844844847
   6    -0.001753923589377
   7       0.0247618537932
   8    0.0028047096489644
   9    -0.028279155959347
  10    0.0016623147237011
  11    -0.00051095290322707
  12    0.0022173050102923
  13    -0.0011425688228022
  14    -0.00055716140951231
  15    -0.002741703204835
  16    -0.002945281507562
  17     0.013834863551576
  18    0.00029668429111081
  19    -0.00025542253104126
  20    0.0019483787265239
  21     0.031540366328451
  22    -0.011263835347479
  23     0.021625732330296
  24    -0.0023852668054973
  25    -0.025074780831357
  26     0.018940389496207
  27    -0.027240002709119
  28    -0.0073305852101631
  29    -0.0013812760981583
  30    0.0016156027093955
  31     0.021423430908559
  32    -0.0081835406602831
  33    -0.0067401116152267
  34    -0.0073371980593502
  35    -0.0078407000090593
  36    -0.0091497987454593
  37    -0.0087192713701874
  38    0.00041916377291656
  39    -0.00050244068437336
  40    0.00022863364450509
  41    -0.00042349892428763
  42    -0.00040989486430573
  43    0.00047917411846851
  44    0.00051419244933953
  45    -0.0048583967657579
  46    -0.00035274735074631
  47    0.0022759412750259
  48    0.0022457294353421
  49    -0.003319449751046
  50     0.002732632774841
  51    0.0027463026792452
  52    0.00010640541309825
  53    0.00063215187784972
  54    0.00021736287710208
  55    -4.896754386645e-05
  56    -9.0750385721707e-05
  57    0.00086036340638141
  58    0.00029469686191657
  59    -0.010483619832998
  60    -0.0029179131282766
  61    0.0015744222210024
  62    0.0023274403539556
  63    -0.0051149974031834
  64    -0.00032478107698639
  65    0.0021400456641515
  66    1.611034300659e-05
  67    -0.00031346030090862
  68    0.00032384503310302
  69    -0.0007238512318536
  70    -0.00016207878316583
  71    -0.0016147056302803
  72    0.00089609512436588
  73     0.014514268565538
  74      0.51811400420098
  75     -0.42188221374697
  76     0.026357979191598
  77       0.3604905723427
  78     -0.29089529433248
  79     0.020294893674345
  80    0.0004605694437535
  81    0.0092104730408853
  82     -0.00690466410934
  83    0.0081424151343129
  84    0.0016323379848415
  85    -0.0069898797680708
  86     0.025900071298607
  87    -0.0010080709036131
  88    -0.00014444620759874
  89    0.00032825928206696
  90     0.051505369239248
  91     0.048144057372489
  92    -0.0019869589205919
  93    -0.00068072474588607
  94    -0.0031158580664409
 Sym= A
 Ene=               8
 Spin= Alpha
 Occup=    1.00000
   1     0.002741655401802
   2    0.0029447603015303
   3    -0.013835807055437
   4    0.00029580090651391
   5    -0.00025616306003995
   6    0.0019513504087672
   7     0.031539131096218
   8    -0.011265649353142
   9     0.021628024724168
  10    0.0023876186410961
  11     0.025074089179139
  12    -0.018941046604717
  13     0.027240250848373
  14    0.0073296430511533
  15    0.0020540713464697
  16     0.032527136961293
  17      0.07817426940412
  18     0.044091709687892
  19    0.0053483031949041
  20    -0.0017541113677626
  21     0.024760864853711
  22    0.0028058900650457
  23    -0.028278935047451
  24    -0.0016622599552048
  25    0.00051100291074579
  26    -0.0022171467045063
  27     0.001142547873259
  28    0.00055717245463491
  29    0.0016162453216742
  30    -0.00089734624688362
  31    -0.014515568772775
  32      0.51809050645974