[Molden Format]
made by pyscf v[2.0.1]
[Atoms] (AU)
C   1   6     0.00000000000000     0.00000000000000     0.00000000000000
C   2   6     2.85272299873892     0.00000000000000     0.00000000000000
H   3   1     3.62066923017674     0.00000000000000     1.90331545357504
F   4   9     3.65943188126013    -2.04308229183900    -1.24074875274501
F   5   9     3.65943188126013     2.04308229183900    -1.24074875274501
F   6   9    -0.80670888252121    -1.24074875274501    -2.04308229183900
H   7   1    -0.76794623143782     1.90331545357504     0.00000000000000
F   8   9    -0.80670888252121    -1.24074875274501     2.04308229183900
[GTO]
1 0
 s    8 1.00
                  6665  0.00069158396281299
                  1000  0.0053257961529341
                   228   0.027060721042034
                 64.71    0.10165684614077
                 21.06     0.2745748236174
                 7.495    0.44829431892377
                 2.797    0.28490261071525
                0.5215   0.015194859206082
 s    8 1.00
                  6665  -0.00029326965268655
                  1000  -0.0023180354739745
                   228  -0.011499786038565
                 64.71  -0.046826727009787
                 21.06   -0.12846616875047
                 7.495   -0.30126627246289
                 2.797   -0.25563070233011
                0.5215      1.093793361012
 s    1 1.00
                0.1596                   1
 p    3 1.00
                 9.439   0.056979251590039
                 2.002    0.31320721150073
                0.5456    0.76037674173753
 p    1 1.00
                0.1517                   1
 d    1 1.00
                  0.55                   1

2 0
 s    8 1.00
                  6665  0.00069158396281299
                  1000  0.0053257961529341
                   228   0.027060721042034
                 64.71    0.10165684614077
                 21.06     0.2745748236174
                 7.495    0.44829431892377
                 2.797    0.28490261071525
                0.5215   0.015194859206082
 s    8 1.00
                  6665  -0.00029326965268655
                  1000  -0.0023180354739745
                   228  -0.011499786038565
                 64.71  -0.046826727009787
                 21.06   -0.12846616875047
                 7.495   -0.30126627246289
                 2.797   -0.25563070233011
                0.5215      1.093793361012
 s    1 1.00
                0.1596                   1
 p    3 1.00
                 9.439   0.056979251590039
                 2.002    0.31320721150073
                0.5456    0.76037674173753
 p    1 1.00
                0.1517                   1
 d    1 1.00
                  0.55                   1

3 0
 s    3 1.00
                 13.01   0.033498726389998
                 1.962    0.23480080117413
                0.4446     0.8136829578829
 s    1 1.00
                 0.122                   1
 p    1 1.00
                 0.727                   1

4 0
 s    8 1.00
                 14710  0.00072067370873197
                  2207  0.0055504869689163
                 502.8   0.028254207662589
                 142.6    0.10639582836653
                 46.47    0.28668420124307
                  16.7    0.44843796582416
                 6.356    0.26464118141135
                 1.316   0.015326060993048
 s    8 1.00
                 14710  -0.00032119389049893
                  2207  -0.0025461915683188
                 502.8  -0.012643359507821
                 142.6   -0.05195749170489
                 46.47   -0.14344713812646
                  16.7   -0.33243762329603
                 6.356   -0.21865906750347
                 1.316     1.0955904138622
 s    1 1.00
                0.3897                   1
 p    3 1.00
                 22.67   0.064834021493887
                 4.977    0.34053535983101
                 1.347    0.73464640679382
 p    1 1.00
                0.3471                   1
 d    1 1.00
                  1.64                   1

5 0
 s    8 1.00
                 14710  0.00072067370873197
                  2207  0.0055504869689163
                 502.8   0.028254207662589
                 142.6    0.10639582836653
                 46.47    0.28668420124307
                  16.7    0.44843796582416
                 6.356    0.26464118141135
                 1.316   0.015326060993048
 s    8 1.00
                 14710  -0.00032119389049893
                  2207  -0.0025461915683188
                 502.8  -0.012643359507821
                 142.6   -0.05195749170489
                 46.47   -0.14344713812646
                  16.7   -0.33243762329603
                 6.356   -0.21865906750347
                 1.316     1.0955904138622
 s    1 1.00
                0.3897                   1
 p    3 1.00
                 22.67   0.064834021493887
                 4.977    0.34053535983101
                 1.347    0.73464640679382
 p    1 1.00
                0.3471                   1
 d    1 1.00
                  1.64                   1

6 0
 s    8 1.00
                 14710  0.00072067370873197
                  2207  0.0055504869689163
                 502.8   0.028254207662589
                 142.6    0.10639582836653
                 46.47    0.28668420124307
                  16.7    0.44843796582416
                 6.356    0.26464118141135
                 1.316   0.015326060993048
 s    8 1.00
                 14710  -0.00032119389049893
                  2207  -0.0025461915683188
                 502.8  -0.012643359507821
                 142.6   -0.05195749170489
                 46.47   -0.14344713812646
                  16.7   -0.33243762329603
                 6.356   -0.21865906750347
                 1.316     1.0955904138622
 s    1 1.00
                0.3897                   1
 p    3 1.00
                 22.67   0.064834021493887
                 4.977    0.34053535983101
                 1.347    0.73464640679382
 p    1 1.00
                0.3471                   1
 d    1 1.00
                  1.64                   1

7 0
 s    3 1.00
                 13.01   0.033498726389998
                 1.962    0.23480080117413
                0.4446     0.8136829578829
 s    1 1.00
                 0.122                   1
 p    1 1.00
                 0.727                   1

8 0
 s    8 1.00
                 14710  0.00072067370873197
                  2207  0.0055504869689163
                 502.8   0.028254207662589
                 142.6    0.10639582836653
                 46.47    0.28668420124307
                  16.7    0.44843796582416
                 6.356    0.26464118141135
                 1.316   0.015326060993048
 s    8 1.00
                 14710  -0.00032119389049893
                  2207  -0.0025461915683188
                 502.8  -0.012643359507821
                 142.6   -0.05195749170489
                 46.47   -0.14344713812646
                  16.7   -0.33243762329603
                 6.356   -0.21865906750347
                 1.316     1.0955904138622
 s    1 1.00
                0.3897                   1
 p    3 1.00
                 22.67   0.064834021493887
                 4.977    0.34053535983101
                 1.347    0.73464640679382
 p    1 1.00
                0.3471                   1
 d    1 1.00
                  1.64                   1

[5d]
[7f]
[9g]

[MO]
 Sym= A
 Ene=               0
 Spin= Alpha
 Occup=    1.00000
   1    -0.00020933977101625
   2    -0.0008621265668233
   3    0.0028727769270692
   4    -0.0010865651696244
   5    7.0937946332388e-05
   6    -7.247732526168e-05
   7    0.0013130374093604
   8    -0.00033918953629911
   9    9.6438955517338e-05
  10    0.00011712038862738
  11    2.2344214203707e-05
  12    -1.1614788984041e-05
  13    -0.00017099352238708
  14    2.8017234244381e-05
  15       1.0018739599658
  16    -0.00091914770116039
  17    -0.009694680980517
  18    0.00016748655800874
  19    4.7513670121981e-05
  20    -0.0029998849643697
  21    0.0017129648309939
  22    4.6469716028669e-05
  23    -0.0014734626981714
  24    -9.052075506217e-05
  25    -0.00010943506505223
  26    -1.058397530476e-05
  27    -0.0003048387323853
  28    -9.1926112714315e-06
  29    -0.0031013042244502
  30    0.00082209124023705
  31    -5.099365938151e-05
  32    -1.510195910479e-05
  33    0.00034089697938555
  34    0.00012774973580296
  35    -0.00012714616595434
  36    -0.00062408556834749
  37    0.00044381618207957
  38    -0.0010655119039737
  39    -0.000556680256853
  40    0.0004452825028986
  41    -0.0015756418165519
  42    -0.00067618973644437
  43    3.8753710240036e-05
  44    6.4458958702479e-05
  45    -0.00021722824389179
  46    0.0001415659732071
  47    0.00011740461068288
  48    0.00013547294403758
  49    -0.00010964311504471
  50    -0.00067156889870105
  51    0.00044765293279758
  52    0.0010620475977291
  53    -0.00054542625016257
  54    0.00042005168475724
  55    0.0015747725740676
  56    -0.00069744649239386
  57    3.5885203339702e-05
  58    6.5776913783946e-05
  59    0.00022123428655419
  60    0.00014456592838825
  61    -0.00012045537869468
  62    -4.0247248343101e-06
  63    2.0907597552259e-05
  64    -0.00013835372126301
  65    0.00011402145801182
  66    -1.8523070836499e-05
  67    3.5834310197232e-05
  68    0.00018433506947406
  69    -3.5298830066719e-05
  70    -7.2047599539757e-05
  71    -1.6929000263304e-05
  72    2.2394887282429e-06
  73    2.2769399189901e-06
  74    2.3788590573062e-05
  75    1.952294142303e-06
  76    0.00010585772105432
  77    0.00062021663279447
  78    7.5362318749925e-05
  79    -5.518196572416e-05
  80    -9.6486202963645e-07
  81    8.296439880981e-06
  82    0.00012192248929364
  83    -2.0658595867642e-05
  84    0.00028485566880018
  85    7.0618329705716e-05
  86    -5.6358911861684e-05
  87    0.00032343163640634
  88    2.4029972115538e-05
  89    1.0980837711623e-05
  90    -5.4805912364172e-06
  91    -4.5824485070238e-07
  92    -1.5277082197058e-05
  93    1.1837924799443e-05
  94    -3.7315649709486e-06
 Sym= A
 Ene=               1
 Spin= Alpha
 Occup=    1.00000
   1       1.0018739599755
   2    -0.00091914730467848
   3    -0.0096946808473878
   4    -0.00016748717813063
   5    -0.0029998847140576
   6    4.7513718371793e-05
   7    -0.0017129649168761
   8    -0.0014734625674605
   9    4.6469731207951e-05
  10    0.00030925850896015
  11    9.1926030865655e-06
  12    -1.0583981738587e-05
  13    -7.4026176310931e-05
  14    0.00010943505937161
  15    -0.00020933981064916
  16    -0.00086212715093565
  17    0.0028727766083392
  18     0.001086565452875
  19    -7.2477319487052e-05
  20    7.0937978533087e-05
  21    -0.0013130372374522
  22    9.6438926933224e-05
  23    -0.0003391895756581
  24    8.9524538222912e-05
  25    -2.8017242028214e-05
  26    -1.1614786112699e-05
  27    -0.00018692597049325
  28    -2.2344230266932e-05
  29    0.00010585754811917
  30    0.00062021665473234
  31    -7.5362306282018e-05
  32    -9.6486162598491e-07
  33    -5.5181942248035e-05
  34    -4.0247231982818e-06
  35    2.0907555243078e-05
  36    -0.00013835373687567
  37    -0.00011402112733447
  38    3.5834208667856e-05
  39    -1.8523105489927e-05
  40    -0.0001843348812352
  41    -7.2047660876541e-05
  42    -3.5298844780666e-05
  43    -1.213701997579e-05
  44    -1.952285250881e-06
  45    2.2769317730863e-06
  46    2.6555242705042e-05
  47    -2.2394743825898e-06
  48    8.2964432771645e-06
  49    0.00012192245878329
  50    -2.0658586896462e-05
  51    -0.00028485538089055
  52    -5.63587614084e-05
  53    7.0618256979253e-05
  54    -0.00032343146559837
  55     1.09809245289e-05
  56    2.4029938810354e-05
  57    -7.5116443379785e-06
  58    3.731572601905e-06
  59    -1.527707367979e-05
  60    1.0665297156267e-05
  61    4.5823085906777e-07
  62    0.00012774974753842
  63    -0.0001271460795529
  64    -0.00062408547649414
  65    -0.00044381578317166
  66    -0.00055668025996063
  67    -0.0010655117260331
  68    -0.00044528220564049
  69    -0.00067618976726148
  70    -0.0015756417027137
  71    -0.00014197657623671
  72    -0.00011740460446421
  73    -0.00021722823150443
  74    3.7221284064067e-05
  75    -6.4458955132539e-05
  76    -0.0031013036054384
  77    0.00082209143707067
  78    5.0993668692491e-05
  79    0.00034089692488717
  80    -1.5101957199435e-05
  81    0.00013547296727591
  82    -0.00010964304046595
  83    -0.00067156884170598
  84    -0.00044765253146795
  85    -0.00054542618706211
  86    0.0010620473207581
  87    -0.00042005138723835
  88    -0.00069744648369815
  89    0.0015747723981599
  90    -0.00014314035928092
  91    0.00012045537097495
  92    0.0002212342711293
  93    4.1205461207243e-05
  94    -6.5776909166503e-05
 Sym= A
 Ene=               2
 Spin= Alpha
 Occup=    1.00000
   1    8.2178008451593e-05
   2    0.00012516040177634
   3    -0.0016233691304455
   4    -0.00014273434852619
   5    4.0075900902377e-05
   6    -2.4911886284693e-05
   7    -0.00079723186970983
   8    -0.00012128535133017
   9    0.00022467894480475
  10    -5.7005693755254e-06
  11    1.6669899801087e-05
  12    -4.9068646896117e-05
  13    -0.00010795166435934
  14    -3.5349566307842e-05
  15    -4.2128874927962e-05
  16    5.4310651861269e-05
  17    0.0038541719990466
  18    0.00025546446015064
  19    0.00046999625883731
  20    -0.00027092798745323
  21    -0.00032517938067099
  22    0.0010676387971711
  23    -0.0010432192152777
  24    -7.9542421069344e-06
  25    3.8050926181625e-06
  26     6.50481781521e-05
  27    3.8903413951661e-05
  28    -2.8772035705963e-05
  29    -0.00022592493855056
  30    -0.00014016235777637
  31    2.7381046046769e-07
  32    -0.00013043960541679
  33     0.000120066436317
  34    0.00010479031297939
  35    0.00019481773103727
  36    -0.00075705421456714
  37    9.4962186805061e-06
  38    1.0589414642901e-05
  39    -4.9061580574887e-05
  40    4.7275814785967e-05
  41    -0.00040112775626229
  42    0.00011523736029606
  43    2.1211401036296e-05
  44    -1.2407350700969e-05
  45    -3.9911007898812e-06
  46    2.1992835773416e-05
  47    1.2946925109099e-05
  48       1.0010166822307
  49    -0.0042157466138691
  50    -0.011398991253828
  51    -0.0010913073775723
  52    -0.0024921172356188
  53    0.0015612597050034
  54    2.4941399381597e-05
  55    7.6733431840295e-05
  56    5.6853393874318e-05
  57    1.9500844125984e-05
  58      4.5061991276e-05
  59    9.8698628866834e-05
  60    8.4484118547681e-05
  61    -6.8447509320917e-05
  62    7.9585249653031e-06
  63    2.0926843063282e-05
  64    0.0001048241038287
  65    3.8411564753797e-05
  66    7.8002781050092e-06
  67    3.8805121568093e-07
  68    -5.3511150230235e-05
  69    8.6950799379002e-06
  70    5.0639728110587e-05
  71    6.8149609559009e-06
  72    3.4210881141181e-06
  73    3.6974200782012e-06
  74    -1.6740087057467e-05
  75    -7.4498415584426e-06
  76    5.4452939678052e-05
  77    -8.9470265991226e-05
  78    -5.0984869872856e-05
  79    1.1401445701353e-05
  80    6.2286617075241e-07
  81    -3.0147168385349e-05
  82    -5.1269094457996e-05
  83    0.0001702831009674
  84    -2.2859139329296e-05
  85    4.5009420697338e-06
  86    -6.2458636244875e-06
  87    0.00017294973001716
  88    2.2207824241913e-05
  89    -3.7739892274622e-05
  90    -5.984540804427e-06
  91    2.9158367028044e-06
  92    -5.511201335584e-06
  93    -4.2662090964624e-06
  94    3.0616682065711e-07
 Sym= A
 Ene=               3
 Spin= Alpha
 Occup=    1.00000
   1    -4.2135936542082e-05
   2    5.4278990525305e-05
   3    0.0038541529336599
   4    -0.0002554497786521
   5    -0.00027090450127689
   6    0.00046996064882971
   7    0.00032517231317224
   8    -0.0010432245204727
   9    0.0010676411147675
  10    -2.9712493546934e-05
  11    2.8769797480774e-05
  12    6.5047954174121e-05
  13    2.6341183827607e-05
  14    -3.803218617089e-06
  15    8.2177676488175e-05
  16    0.00012516188333601
  17    -0.0016233588400316
  18    0.00014273009419549
  19    -2.4910084680836e-05
  20    4.0073192055591e-05
  21    0.00079721887105869
  22    0.00022468160219902
  23    -0.00012129372748088
  24    9.6338866773221e-05
  25    3.5351257097768e-05
  26    -4.9068123400487e-05
  27    -4.9038723401148e-05
  28    -1.6671468702502e-05
  29    5.4453418714909e-05
  30    -8.9459054210901e-05
  31    5.098451647813e-05
  32    6.226723753625e-07
  33    1.140100409619e-05
  34    7.9587546092995e-06
  35    2.0927092284984e-05
  36    0.00010482195794971
  37    -3.8411250860974e-05
  38    3.8757776455416e-07
  39    7.8006692656506e-06
  40    5.3513342438452e-05
  41    5.063867423499e-05
  42    8.6959756139511e-06
  43    1.1089833206965e-05
  44    7.4498766719845e-06
  45    3.6973894386121e-06
  46    -1.4271938642222e-05
  47    -3.4211584041652e-06
  48    -3.0147199486096e-05
  49    -5.1270312852192e-05
  50    0.00017027962996291
  51    2.2861677185828e-05
  52    -6.244369010675e-06
  53    4.4998841484762e-06
  54    -0.00017294721927338
  55    -3.7738682988497e-05
  56    2.2207626352771e-05
  57    6.6868307194457e-06
  58    -3.0622164974043e-07
  59    -5.511247171957e-06
  60    3.0497435626647e-06
  61    -2.9157088769444e-06
  62    0.00010479035218928
  63    0.00019481819854844
  64    -0.00075705265439716
  65    -9.4962919079931e-06
  66    -4.9062254825248e-05
  67    1.0592053207541e-05
  68    -4.7275951452374e-05
  69    0.00011523733816711
  70    -0.00040112488602638
  71    -2.9652690663698e-05
  72    -1.2946956947345e-05
  73    -3.9911229448128e-06
  74    -7.3732877035121e-06
  75    1.2407613195851e-05
  76    -0.00022592497777241
  77    -0.00014015263022525
  78    -2.722079242625e-07
  79    0.00012006658976652
  80    -0.00013044136786252
  81       1.0010166887164
  82    -0.0042153773416903
  83    -0.011398564553741
  84    0.0010912172659355
  85    0.0015611833355918
  86    -0.0024919591563033
  87    -2.5002284769972e-05
  88    5.6801848278617e-05
  89    7.6842099230726e-05
  90    -8.291771283179e-05
  91    6.844992027935e-05
  92    9.8701186952994e-05
  93    2.5354006040046e-05
  94    -4.5063334824776e-05
 Sym= A
 Ene=               4
 Spin= Alpha
 Occup=    1.00000
   1    6.6215379790774e-05
   2    9.0605557199661e-05
   3    -0.001567266711383
   4    -0.00015017091476321
   5    -5.3392426229479e-06
   6    1.250430608136e-06
   7    -0.00061236937887359
   8    0.00037231698322357
   9    0.00030544972152836
  10    7.5415009952131e-06
  11    3.6992702447495e-05
  12    5.9047312408635e-05
  13    -8.2267966233488e-05
  14    9.9577930391199e-07
  15    -4.0256854365644e-05
  16    5.1271268078884e-05
  17    0.0036947305293734
  18    0.0002705461614718
  19    -0.0004549761980293
  20    -0.0002753533435736
  21    -0.00026566371543093
  22    -0.0011587578556952
  23    -0.00099924703560909
  24    7.5124277135994e-06
  25    2.2852893708197e-05
  26    -6.1982004620875e-05
  27    4.436808781703e-05
  28    3.1562613743174e-05
  29    -0.00024431851651146
  30    -0.00014057770771081
  31    7.2308239462109e-06
  32    0.00013804397380693
  33    0.00012254064335348
  34       1.0010089367587
  35    -0.0041447758741381
  36    -0.011267293297374
  37    -0.0010980337639955
  38    0.0024926944073821
  39    0.0014692489424409
  40    -2.8051848565685e-05
  41    -8.8541577019116e-05
  42    -4.7116999382459e-05
  43    1.5076272794934e-05
  44    5.0467803668305e-05
  45    -0.00010156204055361
  46    8.4228942921134e-05
  47    6.9937351839952e-05
  48    0.00010044354213407
  49    0.00018525382038579
  50    -0.00071045441709097
  51    2.988898775345e-06
  52    -5.5742719057068e-06
  53    -4.6846635518736e-05
  54    7.0728988115096e-05
  55    0.00038656197465642
  56    0.00011658777423199
  57    2.2282330309342e-05
  58    -1.1566208210134e-05
  59    3.7208897864459e-06
  60    1.8845703934301e-05
  61    -1.3480258895817e-05
  62    -3.2742961675551e-05
  63    -6.106384437016e-05
  64    0.0002666678444628
  65    1.8345376627089e-05
  66    -1.0096847182991e-05
  67    -4.007772110713e-05
  68    -4.2157665265519e-05
  69    -3.1000448294955e-06
  70    9.7404337921571e-05
  71    4.4464939571849e-06
  72    -5.2166864675532e-06
  73    -4.3125161228174e-06
  74    -2.1753172620703e-05
  75    -8.8966162540012e-07
  76    3.7897254362711e-05
  77    1.231546712727e-05
  78    1.9471237295909e-05
  79    -1.134441622228e-05
  80    -5.0216069932436e-05
  81    6.2246040465132e-06
  82    1.8886799336637e-05
  83    9.4155319419528e-05
  84    3.2214108139564e-05
  85    7.4854727884572e-06
  86    -5.9837804874715e-06
  87    -3.0582943762725e-05
  88    -3.633801154792e-06
  89    -5.9287274925522e-05
  90    1.4813996622463e-05
  91    5.5027917785324e-06
  92    -3.2548951697008e-06
  93    -8.9380571812429e-06
  94    4.8875124015959e-06
 Sym= A
 Ene=               5
 Spin= Alpha
 Occup=    1.00000
   1    -4.0259571119004e-05
   2    5.1259572838034e-05
   3    0.0036947244330349
   4    -0.00027054050698527
   5    -0.00027534508245201
   6    -0.00045496357623585
   7    0.00026566270040621
   8    -0.00099924897130451
   9    -0.0011587572182082
  10    -4.2179288629711e-05
  11    -3.156231157341e-05
  12    -6.1981534318673e-05
  13    1.5677876666017e-05
  14    -2.2852591238111e-05
  15    6.6214936035053e-05
  16    9.0604883032769e-05
  17    -0.0015672618343835
  18    0.00015017017136596
  19    1.2512324225697e-06
  20    -5.3385756659924e-06
  21    0.00061236676159657
  22    0.00030545116430076
  23    0.00037231625278357
  24    6.7475181322582e-05
  25    -9.9661369588639e-07
  26    5.904730768668e-05
  27    -4.766527108846e-05
  28    -3.6993407929065e-05
  29    3.7896542775654e-05
  30    1.2314955688729e-05
  31    -1.9471383651863e-05
  32    -5.0216095062202e-05
  33    -1.1344584404388e-05
  34    -3.2743012723977e-05
  35    -6.10640007895e-05
  36    0.00026666777661982
  37    -1.8344785855999e-05
  38    -4.0077187728273e-05
  39    -1.0096019416683e-05
  40    4.215791121786e-05
  41    9.7404212751529e-05
  42    -3.0998504786493e-06
  43    1.6615543910274e-05
  44    8.8972261425876e-07
  45    -4.3125431165026e-06
  46    -1.4727296234838e-05
  47    5.2167045701936e-06
  48    6.2247522664841e-06
  49    1.8886951331343e-05
  50    9.4153783420164e-05
  51    -3.2213909789576e-05
  52    -5.9838918731744e-06
  53    7.4853184240061e-06
  54    3.0583530872333e-05
  55    -5.928710404598e-05
  56    -3.6340448396813e-06
  57    3.3358901404815e-07
  58    -4.8875403004146e-06
  59    -3.2548938735234e-06
  60    -1.7298305836021e-05
  61    -5.5027951850806e-06
  62       1.0010089390489
  63    -0.0041446417316213
  64    -0.011267137830238
  65    0.0010980141814636
  66    0.0014692156890892
  67    0.0024926364314557
  68    2.8038512797449e-05
  69    -4.71393169892e-05
  70    -8.8581078804093e-05
  71    -8.0483279345041e-05
  72    -6.9937963898834e-05
  73    -0.000101563096841
  74    2.9058253112475e-05
  75    -5.0468161442328e-05
  76    -0.00024431792779891
  77    -0.00014057316835736
  78    -7.2303043966626e-06
  79    0.00012254071496221
  80    0.00013804449770025
  81    0.0001004435632639
  82    0.00018525405583267
  83    -0.00071045396393011
  84    -2.9887175747516e-06
  85    -4.684689682308e-05
  86    -5.5753359453704e-06
  87    -7.0728843470537e-05
  88    0.00011658761817777
  89    0.00038656075541205
  90    -2.7462250509301e-05
  91    1.3480250356897e-05
  92    3.7209036271797e-06
  93    -9.8742477739751e-06
  94    1.1566295974713e-05
 Sym= A
 Ene=               6
 Spin= Alpha
 Occup=    1.00000
   1    0.0028147922862305
   2     0.025565908373678
   3     0.057650551844146
   4     0.043913163298667
   5    -0.0034361986372263
   6    -0.0018821499794424
   7     0.037969989230439
   8     0.019470916417242
   9    0.0085433358013815
  10    0.00074286328349478
  11    -0.0022464737206674
  12    -0.00084492985900983
  13    0.00097838328211954
  14    -0.00092442059024862
  15    0.0025875696339628
  16     0.010738021417539
  17    -0.0072736848175256
  18     0.023621589550082
  19     0.019486783346915
  20    -0.0085880677164856
  21     0.042610890224597
  22     0.010451375459602
  23    -0.012720604950579
  24    -0.0040609055176871
  25    -0.017923678532557
  26    -0.0050678682115618
  27     0.025708389792611
  28    -0.027855698901881
  29    -0.018882284765838
  30    -0.022997527344966
  31    -0.0010982217040162
  32    0.0015700657425904
  33    -3.9354631939245e-05
  34    0.0011205946570778
  35    -0.0035912161292932
  36     -0.01448093849141
  37      0.62396461586125
  38      0.23302396955934
  39     0.030123764253136
  40      0.43140406940634
  41      0.15725267352475
  42     0.019316596732499
  43    0.00018959333118171
  44    0.0071058985497505
  45     0.003064244394318
  46    -0.0086710215637741
  47    0.0093284411577438
  48    0.00056194011727939
  49    -0.0098572974228129
  50    -0.027406271875943
  51    -0.00051573725496524
  52     0.023915385528378
  53    -0.0066931296061334
  54    -0.0028205299394432
  55     0.024469405502415
  56    -0.0044700283866902
  57    -0.00017576377401725
  58    -0.00054683367949514
  59    -7.7857654539945e-05
  60    8.5474814961715e-05
  61    -0.00060846282781589
  62    0.00043080268932385
  63    0.0067210095330549
  64     0.012303530629568
  65    0.0095047982794356
  66    -0.0049501554097491
  67    0.0027366908669737
  68    -5.4425836119744e-05
  69    -0.0012797021262354
  70    0.0060002928587045
  71    0.0010559046484188
  72    0.00046315154331174
  73    0.00030883553114781
  74    -0.00084943202452232
  75    0.0013223928502054
  76     -0.01436839796046
  77    -0.022143868728689
  78    0.0020389577102704
  79    0.0013480930160578
  80    -0.00062353797588039
  81    -0.00038565366197316
  82    -3.1657656703446e-05
  83    0.0032640105931776
  84    -0.0015710743007862
  85    -0.0019649267437285
  86    -0.0010735128915658
  87    -0.0044788127534114
  88    -0.0032628439364772
  89    -0.0020735376044405
  90    5.9335546563464e-05
  91    -0.00051341973038351
  92    0.00013751871903371
  93    0.00032228877167519
  94    0.0005035171865526
 Sym= A
 Ene=               7
 Spin= Alpha
 Occup=    1.00000
   1    -0.0025875655809869
   2    -0.010738027282321
   3    0.0072735808194182
   4     0.023621600743612
   5    0.0085881309189062
   6    -0.019486863145751
   7     0.042610834660616
   8     0.012720684540734
   9    -0.010451489563739
  10     0.020233739994511
  11    -0.027855675218575
  12    0.0050678134890324
  13     -0.01637098945544
  14     -0.01792369092642
  15    -0.0028147972728099
  16    -0.025565899034288
  17    -0.057650433445047
  18     0.043913137081191
  19    0.0018821417635496
  20    0.0034361947442659
  21     0.037969914691476
  22    -0.0085433553326148
  23    -0.019470906646054
  24    0.0012187363665013
  25    -0.00092441713773118
  26    0.00084492929210716
  27    0.00015414788896907
  28    -0.0022464719335332
  29     0.014368396898167
  30     0.022143876757117
  31    0.0020389549558834
  32    0.00062353773536656
  33    -0.0013480937469587
  34    -0.00043079912014607
  35    -0.0067209972868969
  36    -0.012303544129902
  37    0.0095047813071348
  38     -0.00273670053802
  39    0.0049501563706741
  40    -5.4421681743801e-05
  41    -0.0060002968033133
  42     0.001279699423837
  43    -0.00020767638242936
  44    0.0013223923722879
  45    -0.00030883551397635
  46    0.0013391543708897
  47    0.00046315047594613
  48    0.0003856535785221
  49    3.165543644822e-05
  50    -0.0032640148443682
  51    -0.0015710646156052
  52     0.001073519983055
  53    0.0019649306841157
  54    -0.0044787949366351
  55    0.0020735427673817
  56    0.0032628426334853
  57    0.00030877799641243
  58    0.00050351771644229
  59    -0.00013751840251753
  60    -0.00010975816826561
  61    -0.00051341941417621
  62    -0.0011206024182909
  63    0.0035911600393819
  64     0.014480858763312
  65      0.62396437654153
  66    -0.030122247867534
  67     -0.23302475868945
  68      0.43140390498051
  69    -0.019315553636835
  70     -0.15725321850366
  71    -0.0074145540458964
  72    0.0093284311022955
  73    -0.0030642268074073
  74    0.0044996850421308
  75    0.0071059083977436
  76       0.0188821875173
  77     0.022997419664703
  78    -0.0010982162864431
  79    3.9352277881937e-05
  80    -0.0015700587800325
  81    -0.00056194536266593
  82    0.0098573276191605
  83     0.027406397901321
  84    -0.00051572304741117
  85    0.0066931413924368
  86    -0.023915467754409
  87    -0.002820508163594
  88    0.0044700444808083
  89    -0.024469486218228
  90    -1.3858430015112e-05
  91    -0.00060846280770588
  92    7.7856110781839e-05
  93    -0.00019495176981805
  94    -0.0005468347040147
 Sym= A
 Ene=               8
 Spin= Alpha
 Occup=    1.00000
   1    0.0022736777376854
   2    0.0018377168740984
   3    -0.019446960571689
   4    -0.007207963117749
   5     0.015261417095741
   6     0.011000722598959
   7    -0.034017792689137
   8     0.016603281577653
   9     0.029207237704012
  10     0.010958958881729
  11    -0.022672919417365
  12     0.019989057815598
  13     0.025497850838122
  14    0.0060462617215768
  15    0.0022547694537093
  16     0.023359654525446
  17     0.057524930477416
  18    -0.030551496288948
  19    0.00067735851743353
  20    0.0016818218747662
  21    -0.026175061699289
  22     0.015370929257393
  23    -0.018493497865078
  24    -0.00066723977453461
  25    -0.00054473246319854
  26    0.0012534719816161
  27    0.0013091778306093
  28    0.00088480563272431
  29    0.0067829491163551
  30    -0.0033669376487106
  31    0.00085734788558911
  32    0.0002283810382787
  33    -0.0011739978727417
  34    -0.00025664404028398