[Molden Format]
made by pyscf v[2.0.1]
[Atoms] (AU)
C   1   6     0.00000000000000     0.00000000000000     0.00000000000000
C   2   6     2.85272299873892     0.00000000000000     0.00000000000000
H   3   1     3.62066923017674     0.00000000000000     1.90331545357504
F   4   9     3.65943188126013    -2.04308229183900    -1.24074875274501
F   5   9     3.65943188126013     2.04308229183900    -1.24074875274501
F   6   9    -0.80670888252121    -2.36262976149657    -0.36279929541697
H   7   1    -0.76794623143782     1.22342759088295    -1.45802422671364
F   8   9    -0.80670888252121     0.76755391149953     2.26373667011121
[GTO]
1 0
 s    8 1.00
                  6665  0.00069158396281299
                  1000  0.0053257961529341
                   228   0.027060721042034
                 64.71    0.10165684614077
                 21.06     0.2745748236174
                 7.495    0.44829431892377
                 2.797    0.28490261071525
                0.5215   0.015194859206082
 s    8 1.00
                  6665  -0.00029326965268655
                  1000  -0.0023180354739745
                   228  -0.011499786038565
                 64.71  -0.046826727009787
                 21.06   -0.12846616875047
                 7.495   -0.30126627246289
                 2.797   -0.25563070233011
                0.5215      1.093793361012
 s    1 1.00
                0.1596                   1
 p    3 1.00
                 9.439   0.056979251590039
                 2.002    0.31320721150073
                0.5456    0.76037674173753
 p    1 1.00
                0.1517                   1
 d    1 1.00
                  0.55                   1

2 0
 s    8 1.00
                  6665  0.00069158396281299
                  1000  0.0053257961529341
                   228   0.027060721042034
                 64.71    0.10165684614077
                 21.06     0.2745748236174
                 7.495    0.44829431892377
                 2.797    0.28490261071525
                0.5215   0.015194859206082
 s    8 1.00
                  6665  -0.00029326965268655
                  1000  -0.0023180354739745
                   228  -0.011499786038565
                 64.71  -0.046826727009787
                 21.06   -0.12846616875047
                 7.495   -0.30126627246289
                 2.797   -0.25563070233011
                0.5215      1.093793361012
 s    1 1.00
                0.1596                   1
 p    3 1.00
                 9.439   0.056979251590039
                 2.002    0.31320721150073
                0.5456    0.76037674173753
 p    1 1.00
                0.1517                   1
 d    1 1.00
                  0.55                   1

3 0
 s    3 1.00
                 13.01   0.033498726389998
                 1.962    0.23480080117413
                0.4446     0.8136829578829
 s    1 1.00
                 0.122                   1
 p    1 1.00
                 0.727                   1

4 0
 s    8 1.00
                 14710  0.00072067370873197
                  2207  0.0055504869689163
                 502.8   0.028254207662589
                 142.6    0.10639582836653
                 46.47    0.28668420124307
                  16.7    0.44843796582416
                 6.356    0.26464118141135
                 1.316   0.015326060993048
 s    8 1.00
                 14710  -0.00032119389049893
                  2207  -0.0025461915683188
                 502.8  -0.012643359507821
                 142.6   -0.05195749170489
                 46.47   -0.14344713812646
                  16.7   -0.33243762329603
                 6.356   -0.21865906750347
                 1.316     1.0955904138622
 s    1 1.00
                0.3897                   1
 p    3 1.00
                 22.67   0.064834021493887
                 4.977    0.34053535983101
                 1.347    0.73464640679382
 p    1 1.00
                0.3471                   1
 d    1 1.00
                  1.64                   1

5 0
 s    8 1.00
                 14710  0.00072067370873197
                  2207  0.0055504869689163
                 502.8   0.028254207662589
                 142.6    0.10639582836653
                 46.47    0.28668420124307
                  16.7    0.44843796582416
                 6.356    0.26464118141135
                 1.316   0.015326060993048
 s    8 1.00
                 14710  -0.00032119389049893
                  2207  -0.0025461915683188
                 502.8  -0.012643359507821
                 142.6   -0.05195749170489
                 46.47   -0.14344713812646
                  16.7   -0.33243762329603
                 6.356   -0.21865906750347
                 1.316     1.0955904138622
 s    1 1.00
                0.3897                   1
 p    3 1.00
                 22.67   0.064834021493887
                 4.977    0.34053535983101
                 1.347    0.73464640679382
 p    1 1.00
                0.3471                   1
 d    1 1.00
                  1.64                   1

6 0
 s    8 1.00
                 14710  0.00072067370873197
                  2207  0.0055504869689163
                 502.8   0.028254207662589
                 142.6    0.10639582836653
                 46.47    0.28668420124307
                  16.7    0.44843796582416
                 6.356    0.26464118141135
                 1.316   0.015326060993048
 s    8 1.00
                 14710  -0.00032119389049893
                  2207  -0.0025461915683188
                 502.8  -0.012643359507821
                 142.6   -0.05195749170489
                 46.47   -0.14344713812646
                  16.7   -0.33243762329603
                 6.356   -0.21865906750347
                 1.316     1.0955904138622
 s    1 1.00
                0.3897                   1
 p    3 1.00
                 22.67   0.064834021493887
                 4.977    0.34053535983101
                 1.347    0.73464640679382
 p    1 1.00
                0.3471                   1
 d    1 1.00
                  1.64                   1

7 0
 s    3 1.00
                 13.01   0.033498726389998
                 1.962    0.23480080117413
                0.4446     0.8136829578829
 s    1 1.00
                 0.122                   1
 p    1 1.00
                 0.727                   1

8 0
 s    8 1.00
                 14710  0.00072067370873197
                  2207  0.0055504869689163
                 502.8   0.028254207662589
                 142.6    0.10639582836653
                 46.47    0.28668420124307
                  16.7    0.44843796582416
                 6.356    0.26464118141135
                 1.316   0.015326060993048
 s    8 1.00
                 14710  -0.00032119389049893
                  2207  -0.0025461915683188
                 502.8  -0.012643359507821
                 142.6   -0.05195749170489
                 46.47   -0.14344713812646
                  16.7   -0.33243762329603
                 6.356   -0.21865906750347
                 1.316     1.0955904138622
 s    1 1.00
                0.3897                   1
 p    3 1.00
                 22.67   0.064834021493887
                 4.977    0.34053535983101
                 1.347    0.73464640679382
 p    1 1.00
                0.3471                   1
 d    1 1.00
                  1.64                   1

[5d]
[7f]
[9g]

[MO]
 Sym= A
 Ene=               0
 Spin= Alpha
 Occup=    1.00000
   1    -0.000205912356979
   2    -0.0008751952004116
   3    0.0027944755102909
   4    -0.0010719982226304
   5    4.4998984849121e-05
   6    -0.0001056724009559
   7    0.0012099391419779
   8    -0.00012300968939265
   9    0.00037031392813435
  10    0.00010823535800761
  11    2.945666946832e-06
  12    2.9523024970702e-05
  13    -0.00019021306329101
  14    2.5122002099576e-05
  15       1.0018653172261
  16    -0.00094412298795381
  17    -0.0095935561453995
  18    0.0001509565793204
  19    6.0356468951678e-05
  20    -0.0030649671653644
  21    0.0016410299850001
  22    7.8067596629832e-05
  23     -0.00158419206241
  24    -9.9009779167637e-05
  25    -0.00011012124165796
  26    -1.6333507896653e-05
  27    -0.00030542377773631
  28    7.4647555673864e-06
  29    -0.0030805920618019
  30    0.00087975116138098
  31    -5.5597616396325e-05
  32    -9.5146438904509e-06
  33    0.00032779293095677
  34    0.00012531708807927
  35    -0.00012969602188768
  36    -0.00061187535917821
  37    0.00045003612266298
  38    -0.001055583238125
  39    -0.00055623038616035
  40    0.0004264798756847
  41    -0.001577449884349
  42    -0.00065837887120041
  43    3.8151606806909e-05
  44    6.3679306545171e-05
  45    -0.00021506805895815
  46    0.00014322694874194
  47    0.00011769002487967
  48    0.00014774800432147
  49    -8.6483313750131e-05
  50    -0.0007511193512738
  51    0.00044273755238007
  52    0.0010592690179595
  53    -0.00055250987773489
  54    0.00043634319058428
  55    0.0016083419923741
  56    -0.00068864867468702
  57    3.8095274433014e-05
  58    6.615185903527e-05
  59    0.00022316422695736
  60    0.00014705945887718
  61    -0.0001224998967147
  62    -2.3165332459774e-05
  63    1.5336617940593e-05
  64    2.9970484774125e-05
  65    0.00014530128193208
  66    5.7799742358702e-05
  67    6.1032971006387e-05
  68    0.00030041775873054
  69    -2.5014210374822e-05
  70    -8.1831461300542e-06
  71    -1.9616761853329e-05
  72    -2.2692339429776e-06
  73    1.6313767580444e-07
  74    2.0126692329762e-05
  75    2.6734834087279e-06
  76    1.374456393596e-05
  77    0.00045006428152839
  78    6.8008037473956e-05
  79    -2.3650349897271e-05
  80    2.385860918039e-05
  81    1.6389045909022e-05
  82    0.00014633155257096
  83    -4.2776226051426e-05
  84    0.00030156946343279
  85    -7.1427954417154e-05
  86    -7.0213867440251e-05
  87    0.00032514796956647
  88    2.1181260114097e-05
  89    -2.2203330937278e-05
  90    6.2077319012766e-06
  91    -6.9304512377139e-07
  92    6.2746212273772e-06
  93    1.5494493641166e-05
  94    5.3575422847804e-06
 Sym= A
 Ene=               1
 Spin= Alpha
 Occup=    1.00000
   1       1.0018653173876
   2    -0.00094411453510347
   3    -0.0095935697675577
   4    -0.00015101136617718
   5    -0.0019239290101675
   6    0.0023866939709576
   7    -0.0016410406531315
   8    -0.00095851162209349
   9    0.0012637300189145
  10    8.557121579233e-05
  11    -8.9171094588956e-05
  12    0.00023766968997816
  13    -0.00019886426433117
  14    6.505464093297e-05
  15    -0.00020588879034042
  16    -0.00087518771102929
  17    0.0027944618640979
  18    0.0010720516578245
  19    -3.3430354995918e-05
  20    0.00010984410405535
  21    -0.0012099208443644
  22    0.0001437987284511
  23    -0.00036275421995768
  24    8.4045691307871e-05
  25    -1.3895719303701e-05
  26    -3.7755060807381e-06
  27    -0.00020418768033996
  28    -2.1130531016813e-05
  29    1.3759365837041e-05
  30    0.00045007436317624
  31    -6.8004659087093e-05
  32    -2.7808643159087e-06
  33    -3.3480777919385e-05
  34    -2.3165974628504e-05
  35    1.5334545061269e-05
  36    2.9964787963199e-05
  37    -0.00014537702044888
  38    8.3570804857113e-05
  39    -9.731153790236e-06
  40    -0.00030047405454987
  41    -2.4382226684875e-05
  42    -9.9019829851628e-06
  43    -1.4803061629508e-05
  44    -3.4564762491989e-06
  45    6.7902353845681e-06
  46    2.2907169234679e-05
  47    -5.90772193359e-07
  48    1.6388512858266e-05
  49    0.0001463463544782
  50    -4.2765416716852e-05
  51    -0.00030158332385046
  52    -9.9910335792801e-05
  53    7.8902920336806e-06
  54    -0.00032515926292413
  55    1.9168907941431e-06
  56    3.0634715328208e-05
  57    -8.5357135876482e-06
  58    -3.9748631881752e-06
  59    -1.4015249296963e-05
  60    6.9805778955621e-06
  61    -3.6577320740183e-06
  62    0.00012531590840662
  63    -0.00012968755767239
  64    -0.00061187601995669
  65    -0.00044976480803838
  66    -0.0011661975099079
  67    -0.00025247625384036
  68    -0.00042628999752847
  69    -0.0016316242594982
  70    -0.0005096591254957
  71    0.00014668045146439
  72    -2.6868483102078e-05
  73    -6.5718551099292e-05
  74    0.00020588839287436
  75    -0.00013108253500494
  76    -0.0030805825924809
  77    0.00087975941794971
  78    5.559594086533e-05
  79    0.00020341082606048
  80    -0.00025721917458088
  81    0.00014774703113326
  82    -8.6470714029193e-05
  83    -0.0007510973037027
  84    -0.00044294038300151
  85    0.00045614960679901
  86     0.001104070601933
  87    -0.00043648197259386
  88    0.00078930097053353
  89    0.0015613143405926
  90    -0.00022846335739547
  91    0.00012942069311218
  92    -0.00014365105453651
  93    -6.8424107021252e-06
  94    5.1318413955745e-05
 Sym= A
 Ene=               2
 Spin= Alpha
 Occup=    1.00000
   1    -6.0760816800456e-05
   2    1.4955052072118e-05
   3    0.0041167619868854
   4    -0.0002468917189598
   5    -0.00052047354650121
   6    -8.7474924460507e-05
   7    0.00041531482292834
   8    -0.0015460543562567
   9    6.0952287672959e-05
  10    4.065444983939e-05
  11    -2.4492828687298e-05
  12    -5.3600126987968e-06
  13    6.8578063841022e-05
  14    -3.5745467812684e-05
  15    8.4752773994089e-05
  16    0.00011456856755427
  17    -0.0018893044649793
  18    0.00011707058268567
  19    -1.2723595391376e-05
  20    -4.751341972978e-06
  21    0.00095258819169967
  22    0.00042940015912327
  23    0.00010640235575436
  24    -1.5545383087701e-05
  25    -2.0696116777611e-06
  26    3.4551576441619e-05
  27    -9.2146802209513e-05
  28    -2.8107957039434e-05
  29    0.00014927875484889
  30    -0.00013590019005722
  31    -1.0706182137981e-05
  32    -4.2193827307821e-05
  33    -1.4579839199947e-05
  34    -4.3437523963607e-05
  35    -8.0487252403219e-05
  36    0.00030303579268563
  37    6.1146023055631e-06
  38    -2.5931126874695e-05
  39    -3.1184375792915e-05
  40    -5.5334318320092e-05
  41    4.953223207019e-05
  42    7.5345807117851e-05
  43    1.160148087652e-05
  44    3.8131539471789e-06
  45    -8.1952259509301e-06
  46    -1.4057988067846e-05
  47    -2.5419605364107e-06
  48    -2.3416138982692e-05
  49    -3.6995345608716e-05
  50    0.00015095770940006
  51    2.0990276635022e-05
  52    -7.5853074356876e-06
  53    1.103713455312e-05
  54    -0.00017763204609131
  55    -6.6288761384316e-05
  56    -1.4859711276688e-05
  57    -1.0339160309465e-05
  58    -1.8692626612164e-07
  59    4.2516056610383e-06
  60    -8.4379187896462e-06
  61    3.7503671828414e-06
  62       1.0010198912925
  63    -0.0040635373351944
  64    -0.011254182262781
  65    0.0010877652185173
  66    0.0028295925261276
  67    0.00042254366864762
  68    6.6760524636926e-06
  69    -0.00011665960012619
  70    -0.0001049598405216
  71    6.0509010062122e-05
  72    -1.1364180332903e-05
  73    -3.8873903412231e-05
  74    0.00011303066165119
  75    -8.5603846155338e-05
  76    -0.00024574448451906
  77    -0.00013876156344743
  78    -3.0091911443487e-06
  79    0.00018337077445246
  80    -7.3940430999915e-06
  81    0.0001077045499508
  82    0.00020076091129314
  83    -0.00077022373317826
  84    -5.1212478030043e-06
  85    -4.033688892111e-05
  86    2.9966727540606e-05
  87    -6.643907125774e-05
  88    0.00038698113078241
  89    0.00017934318094257
  90    -4.4626260565835e-06
  91    -4.6175642525392e-07
  92    -3.0844690811116e-05
  93    8.5083601560554e-06
  94    1.7992102545648e-05
 Sym= A
 Ene=               3
 Spin= Alpha
 Occup=    1.00000
   1    8.4747209069732e-05
   2    0.00011452757541579
   3    -0.0018893478672897
   4    -0.0001170934725921
   5    -1.2776436093507e-05
   6    -4.5291908284923e-06
   7    -0.00095262125265281
   8    0.00039728672864117
   9    0.00019452808644966
  10    -2.4078295248438e-06
  11    1.6494111959533e-05
  12    5.2636353917282e-05
  13    -8.4558589209691e-05
  14    2.2887859573627e-05
  15    -6.0818608910188e-05
  16    1.473894767531e-05
  17    0.0041167575759217
  18    0.00024677794123446
  19    -0.00045457215218312
  20    -0.00026743225335819
  21    -0.00041536431985925
  22    -0.001145060228605
  23    -0.0010405933453494
  24    -4.4396619193697e-06
  25    4.2028897178399e-06
  26    -6.7462966793297e-05
  27    4.250989492378e-05
  28    4.3162254307304e-05
  29    -0.00024563014371058
  30    -0.0001385648917327
  31    3.0038341008051e-06
  32    0.00013572208264244
  33    0.00012353428973782
  34       1.0010199343272
  35    -0.0040609314906643
  36    -0.011251142647403
  37    -0.0010878813629617
  38    0.0024386035475343
  39      0.00149312355675
  40    -6.7615511405997e-06
  41    -0.00015723212037186
  42    4.0368247036165e-06
  43    1.5697012374112e-05
  44    4.6333456315522e-05
  45    -0.0001005518388136
  46    8.7178635103822e-05
  47    7.2880349476317e-05
  48    0.00010770961532786
  49    0.00020076408773713
  50    -0.0007703088464061
  51    5.1626119336834e-06
  52    -1.1683668429779e-05
  53    -4.8887467434222e-05
  54    6.648253614096e-05
  55    0.00041170806841803
  56    0.00011135221249878
  57    2.156880406609e-05
  58    -1.1921347580412e-05
  59    4.972408218121e-06
  60    2.3536611682362e-05
  61    -1.3484805709895e-05
  62    -4.3430914514408e-05
  63    -8.0494822472285e-05
  64    0.00030300867782221
  65    -6.2259316993663e-06
  66    -3.9866828324932e-05
  67    7.171778553898e-06
  68    5.5271292419296e-05
  69    8.6390818688397e-05
  70    -2.593123570541e-05
  71    1.6431367812732e-05
  72    4.5518307577116e-06
  73    -1.5505223891262e-06
  74    -1.1268713071981e-05
  75    -5.0709520395785e-07
  76    0.00014926211047779
  77    -0.00013589176774539
  78    1.0703504246919e-05
  79    -4.1691841113698e-05
  80    -1.5950375117423e-05
  81    -2.3418322825054e-05
  82    -3.7008202748895e-05
  83    0.00015095133506856
  84    -2.1023541579822e-05
  85    1.2809447881189e-06
  86    -1.3323222139223e-05
  87    0.00017761835708839
  88    -6.0327487065468e-05
  89    -3.122944923402e-05
  90    -4.5381571187485e-06
  91    -2.5536020914761e-06
  92    1.2234388205752e-05
  93    -5.0877307294823e-06
  94    -2.7523901622196e-06
 Sym= A
 Ene=               4
 Spin= Alpha
 Occup=    1.00000
   1    8.9574352449845e-05
   2    0.00013756142647332
   3    -0.001689938442639
   4    -0.0001472630635991
   5    4.3970579897868e-05
   6    -3.6489919970702e-05
   7    -0.00079502542236191
   8    -0.00017667639891309
   9    0.00026770193356325
  10    1.9268418422959e-05
  11    4.8563402679738e-05
  12    -8.5209966741373e-05
  13    -8.6754486805803e-05
  14    -2.6377437194025e-05
  15    -4.0862222967477e-05
  16    5.0352452663374e-05
  17    0.0038378508830881
  18    0.0002490440982263
  19    0.00044897778076645
  20    -0.00027061140516042
  21    -0.00033774031300984
  22    0.0010763134072599
  23    -0.00098520766324266
  24    1.0239190485662e-05
  25      2.5716119486e-05
  26    5.6420538571226e-05
  27    4.2183527748315e-05
  28    -3.1270039728036e-05
  29    -0.00024875379384325
  30    -0.00013737612595115
  31    5.8608114490331e-06
  32    -0.00013140273146121
  33    0.00012636462435449
  34    0.00010354974001046
  35    0.0001917412236105
  36    -0.00073368069281289
  37    2.588496665689e-06
  38    6.4393302645256e-06
  39    -4.5879073016409e-05
  40    6.8490257982272e-05
  41    -0.00038418125007461
  42    0.00010576107222018
  43    2.0968600231461e-05
  44    -1.177171364173e-05
  45    -3.6042068010151e-06
  46    1.983844866286e-05
  47    1.3027352019266e-05
  48       1.0010117181517
  49    -0.0040963253748042
  50     -0.01120493399718
  51    -0.0011310534707397
  52    -0.0024666397019847
  53    0.0014255517726995
  54    -1.2221593077372e-05
  55    7.5188598339624e-05
  56    -3.7621938383597e-05
  57    1.432581396515e-05
  58    4.6902587287302e-05
  59    0.00010167010266584
  60    8.4141726377351e-05
  61    -6.6026006397778e-05
  62    -2.2915103160243e-05
  63    -3.7964027900489e-05
  64    0.00016812490366166
  65    -5.7710921318116e-06
  66    3.3131911678763e-06
  67    9.6124457171471e-06
  68    0.00011146630076136
  69    6.1003441070509e-05
  70    -3.0201359128058e-05
  71    -1.8194947726314e-06
  72    -3.7348493543001e-08
  73    -1.4390838928012e-05
  74    -7.6398642234429e-06
  75    -1.2303929287668e-06
  76    8.0942441730984e-05
  77    -1.8853506394626e-05
  78    -5.0302594856488e-05
  79    -3.9116756921152e-06
  80    -2.5354654774855e-05
  81    8.0679836589323e-06
  82    2.3311804175658e-05
  83    5.8374155734832e-05
  84    1.782991086051e-05
  85    -1.8429322499092e-07
  86    -1.245431699924e-05
  87    3.4746118842594e-05
  88    -1.9719710856768e-05
  89    -3.544865928894e-05
  90    1.5245503062585e-05
  91    8.3157596504368e-07
  92    -1.1543897101415e-06
  93    -4.532125862585e-06
  94    -5.2102310732378e-06
 Sym= A
 Ene=               5
 Spin= Alpha
 Occup=    1.00000
   1    -4.0826243445439e-05
   2    5.0482004227696e-05
   3    0.0038380218732082
   4    -0.00024904905312542
   5    0.00017007909341891
   6    0.00049609653851073
   7    0.00033789660619968
   8    0.00019120448558803
   9    0.0014465094230478
  10    -5.9258710263843e-05
  11    3.9909361614055e-05
  12    -3.934056671774e-05
  13    2.0010504995395e-06
  14    7.4795404292665e-06
  15    8.9572869275647e-05
  16    0.00013746969166114
  17    -0.0016902326556834
  18    0.0001473672126162
  19    1.0243069713541e-05
  20    5.6223322366443e-05
  21    0.00079515075195127
  22    3.6766512839073e-05
  23    -0.00031855907415231
  24    0.00011105154534344
  25    5.4148522797908e-05
  26    4.1089493929985e-05
  27    -3.3763144329453e-05
  28    -1.1016882477168e-05
  29    8.0909953730639e-05
  30    -1.8857612231598e-05
  31    5.0291890039581e-05
  32    -1.9294622462329e-05
  33    1.6918474993726e-05
  34    -2.2916457780526e-05
  35    -3.7954492838925e-05
  36    0.00016819103857626
  37    5.8333485697067e-06
  38    8.7881400350384e-06
  39    -5.2680195086072e-06
  40    -0.00011142808502706
  41    2.7388695208481e-05
  42    6.2324134705497e-05
  43    1.4315579446289e-05
  44    7.6510005825118e-07
  45    7.8121438326267e-06
  46    1.671552336941e-06
  47    9.6991539888476e-07
  48    8.0642426717412e-06
  49    2.3303005756212e-05
  50    5.8406754267628e-05
  51    -1.7819775538191e-05
  52    -8.1408729107899e-06
  53    9.4174362308551e-06
  54    -3.4751977561086e-05
  55    -3.790764271112e-05
  56    1.4471547359181e-05
  57    8.4033135865151e-06
  58    3.9867982025041e-06
  59    -1.0569770653147e-05
  60    -8.4834038422982e-06
  61    3.4544995418327e-06
  62    0.00010355256602836
  63    0.00019173687768618
  64    -0.00073371022169307
  65    -2.8208671444963e-06
  66    -2.4513377509092e-05
  67    3.9268209113924e-05
  68    -6.8665387339595e-05
  69    -0.00022629286019837
  70    -0.00032797251159984
  71    3.950996557281e-06
  72    -1.7389640500109e-05
  73    -2.7024254290632e-05
  74    1.0008375298303e-05
  75    -2.4177423182438e-06
  76    -0.00024864655126533
  77    -0.00013732489768003
  78    -5.8743491238474e-06
  79    -1.9420082281188e-05
  80    -0.00018125385837243
  81       1.0010116738351
  82    -0.0040987903965454
  83    -0.011207736902817
  84    0.0011333425568377
  85    -0.00097412157913841
  86    -0.0026776851243177
  87    1.3801040226015e-05
  88    3.2791814678418e-05
  89    7.706162619131e-05
  90    -0.00011138667926672
  91    7.8329187688999e-05
  92    -7.1291656563354e-05
  93    1.1581761125479e-05
  94    2.0410920486802e-05
 Sym= A
 Ene=               6
 Spin= Alpha
 Occup=    1.00000
   1    -0.0026299234458677
   2    -0.0016246210723174
   3     0.031896414111627
   4    0.0078927578859509
   5    -0.00060310611397783
   6     0.020975138041684
   7     0.038885637269522
   8     0.010031783044358
   9      0.03646576990458
  10    -0.0057243804035048
  11    -0.010424419244039
  12    -0.026946129303339
  13    -0.021967355456096
  14    -0.020822460946201
  15    -0.00091652389497319
  16    -0.019076997695665
  17    -0.067052149456826
  18     0.030952482747478
  19    -0.00031487556360849
  20    -0.00048596903182393
  21     0.036236603403693
  22    -0.020305107096759
  23    -0.0089000346013128
  24    -0.00033595898943233
  25    -0.00085142125251822
  26    -0.00037391649062854
  27    -0.0016159206969921
  28    -0.0013820501953574
  29    0.0011807711909795
  30     0.011406673906896
  31    0.0018391633975417
  32     0.001235971955628
  33    -0.00042731672635932
  34    0.00012771143076276
  35    -0.0027852801541364
  36    -0.0088934769937648
  37    0.0040282975590235
  38    0.0037891605423217
  39    -0.0051287135621253
  40    -0.0018275954918814
  41    1.3695833744263e-05
  42    -0.0033340665344866
  43    -0.00025272612640305
  44    -0.00027675108753613
  45    -0.00039065157646819
  46    0.00054390421137872
  47    0.00091976519389292
  48    -0.0011217473138001
  49    -0.00074951909564174
  50     0.011624374366031
  51    -0.0035086037006391
  52    -0.0037482296807234
  53    0.0029902345828142
  54    -0.0067805000449858
  55    -0.0042117095356815
  56    0.0060318862323378
  57    7.1895429236394e-05
  58    0.00026494704465314
  59    -0.0001767910618281
  60    -0.00017372466197932
  61    -0.00036855343925134
  62    -0.0010547146630449
  63    0.0011865497409893
  64     0.011413030005649
  65      0.42459492206232
  66     -0.21940365566725
  67      0.46625557185142
  68      0.29344395911579
  69     -0.14950510496792
  70      0.32254804218067
  71    0.0025915146127589
  72    0.0051410600215208
  73    0.0087832795436946
  74    0.0073607476906636
  75    0.0069124927890111
  76     0.043284663313812
  77     0.049853021323293
  78    -0.0023187589084863
  79    -0.0023094740434731
  80    -0.0022289242243077
  81    0.0014827559419493
  82    -0.0038781872342868
  83    -0.026886749166102
  84    -0.0047999526067927
  85     0.009985400849932
  86     0.008395981793733
  87    -0.0089872146570144
  88     0.008784063326124
  89    0.0099673046242251
  90    -0.0001192912477162
  91    -0.00021298639094356
  92    -0.00039487190104917
  93    -0.00068630267682029
  94    -0.00027638128881584
 Sym= A
 Ene=               7
 Spin= Alpha
 Occup=    1.00000
   1    0.00085467053499896
   2     0.026593620941491
   3     0.084507544845233
   4       0.0332607547097
   5    0.0044613922992825
   6    -0.0074815092915234
   7     0.014892469698434
   8    -0.0086098271751432
   9    -0.0059500498808115
  10    0.00035629573935924
  11    -0.0011316883454198
  12    0.0010364515687844
  13    0.00076241989912059
  14    0.00095430656272395
  15    0.0028102121837638
  16    0.0050809033071868
  17    -0.011756510097786
  18     0.011517880361575
  19    0.0047476175441788
  20    0.0095214356229747
  21     0.033494574120436
  22     0.019087602545581
  23     0.014638919124569
  24    -0.023666448616855
  25    -0.0094174492747998
  26     0.017609219604207
  27    0.0097818552624808
  28      0.02580034391658
  29     -0.04015241932302
  30    -0.044098774952056
  31    -0.0020793038165975
  32     -0.00290768753533
  33    -0.00015252255921957
  34    -0.00086057461021609
  35    0.00039336081558277
  36     0.011957538923575
  37    -0.0043216006425339
  38    0.0029591148138238
  39    -0.0017819516078631
  40    -0.0068555290577065
  41    0.0032617462050906
  42    -7.4529097042938e-05
  43    -0.00047815580282915
  44    -0.00014895987638046
  45    0.00042787963104149
  46    0.00023383105562634
  47    0.0004234867378323
  48    0.0013723138227448
  49    -0.0088049515018188
  50    -0.021431462156412
  51      0.52845316983872
  52     0.034909181041349
  53      0.40768183782241
  54       0.3668772219775
  55     0.025837426735982
  56      0.28076020340173
  57    0.0074995927790939
  58    0.0022716921820681
  59    -0.0065196033335705
  60    -0.003357311468305
  61    -0.0093409538719697
  62    0.00058805686804093
  63    -0.0024178684162127
  64    -0.016573621478254
  65    -0.0067335144367095
  66    -0.0067388152316596
  67    0.00043918537921141
  68    -0.0038795516846194
  69    -0.0099267890396981
  70    -0.0015001865660084
  71    -0.00017591481033315
  72    1.7826668082356e-05
  73    -0.00023353083330688
  74    0.00055138212756831
  75    0.00057853276290219
  76    0.0086810147455189
  77    -0.028978517417408
  78    -0.0040154236674024
  79    -0.0012034210960323
  80    0.0015504873466095
  81    0.00046513821672549
  82    -0.00092097579343312
  83    -0.008841717718851
  84    -0.003237703768121
  85    0.00077688039819477
  86    0.0052849164808262
  87    -0.0040480279122314
  88    0.0044356622566073
  89    0.0070864210280646
  90    -0.00013703761320198
  91    -0.00041525703703588
  92    -0.00028335998113015
  93    0.00021435974484894
  94    -9.2115276764005e-05
 Sym= A
 Ene=               8
 Spin= Alpha
 Occup=    1.00000
   1    -0.0028112601805083
   2    -0.0050905682281837
   3     0.011746379662129
   4     0.011528040259841
   5    -0.0097438651333106
   6    0.0042352777355876
   7     0.033499262065812
   8    -0.024014276970031
   9    -0.0010537035961025
  10     0.027513332329857
  11      0.02380609826639
  12    -0.012298591905015
  13    -0.0075667411487485
  14     0.013710578584449
  15    -0.00085584352771084
  16    -0.026600535229595
  17    -0.084512094140593
  18     0.033267266041061
  19    0.0013922719375457
  20    -0.0085994486846845
  21     0.014891577102333
  22     0.010423442624394
  23    0.00097734471759838
  24    0.0010212978771963
  25    0.0014809072217879
  26    0.00085959393779977
  27    3.2735805493157e-05
  28    3.4403790836936e-06
  29    -0.0086837751218072
  30     0.028981659524433
  31    -0.0040157672830393
  32    -7.4428062744152e-05
  33    0.0019617962810785