[Molden Format]
made by pyscf v[2.0.1]
[Atoms] (AU)
C   1   6     0.00000000000000     0.00000000000000     0.00000000000000
C   2   6     2.85272299873892     0.00000000000000     0.00000000000000
H   3   1     3.62066923017674     0.00000000000000     1.90331545357504
F   4   9     3.65943188126013    -2.04308229183900    -1.24074875274501
F   5   9     3.65943188126013     2.04308229183900    -1.24074875274501
F   6   9    -0.80670888252121    -1.79658952118831     1.57667650804493
H   7   1    -0.76794623143782    -0.33050726003861    -1.87439981510865
F   8   9    -0.80670888252121     2.22749704090168     0.86712147444210
[GTO]
1 0
 s    8 1.00
                  6665  0.00069158396281299
                  1000  0.0053257961529341
                   228   0.027060721042034
                 64.71    0.10165684614077
                 21.06     0.2745748236174
                 7.495    0.44829431892377
                 2.797    0.28490261071525
                0.5215   0.015194859206082
 s    8 1.00
                  6665  -0.00029326965268655
                  1000  -0.0023180354739745
                   228  -0.011499786038565
                 64.71  -0.046826727009787
                 21.06   -0.12846616875047
                 7.495   -0.30126627246289
                 2.797   -0.25563070233011
                0.5215      1.093793361012
 s    1 1.00
                0.1596                   1
 p    3 1.00
                 9.439   0.056979251590039
                 2.002    0.31320721150073
                0.5456    0.76037674173753
 p    1 1.00
                0.1517                   1
 d    1 1.00
                  0.55                   1

2 0
 s    8 1.00
                  6665  0.00069158396281299
                  1000  0.0053257961529341
                   228   0.027060721042034
                 64.71    0.10165684614077
                 21.06     0.2745748236174
                 7.495    0.44829431892377
                 2.797    0.28490261071525
                0.5215   0.015194859206082
 s    8 1.00
                  6665  -0.00029326965268655
                  1000  -0.0023180354739745
                   228  -0.011499786038565
                 64.71  -0.046826727009787
                 21.06   -0.12846616875047
                 7.495   -0.30126627246289
                 2.797   -0.25563070233011
                0.5215      1.093793361012
 s    1 1.00
                0.1596                   1
 p    3 1.00
                 9.439   0.056979251590039
                 2.002    0.31320721150073
                0.5456    0.76037674173753
 p    1 1.00
                0.1517                   1
 d    1 1.00
                  0.55                   1

3 0
 s    3 1.00
                 13.01   0.033498726389998
                 1.962    0.23480080117413
                0.4446     0.8136829578829
 s    1 1.00
                 0.122                   1
 p    1 1.00
                 0.727                   1

4 0
 s    8 1.00
                 14710  0.00072067370873197
                  2207  0.0055504869689163
                 502.8   0.028254207662589
                 142.6    0.10639582836653
                 46.47    0.28668420124307
                  16.7    0.44843796582416
                 6.356    0.26464118141135
                 1.316   0.015326060993048
 s    8 1.00
                 14710  -0.00032119389049893
                  2207  -0.0025461915683188
                 502.8  -0.012643359507821
                 142.6   -0.05195749170489
                 46.47   -0.14344713812646
                  16.7   -0.33243762329603
                 6.356   -0.21865906750347
                 1.316     1.0955904138622
 s    1 1.00
                0.3897                   1
 p    3 1.00
                 22.67   0.064834021493887
                 4.977    0.34053535983101
                 1.347    0.73464640679382
 p    1 1.00
                0.3471                   1
 d    1 1.00
                  1.64                   1

5 0
 s    8 1.00
                 14710  0.00072067370873197
                  2207  0.0055504869689163
                 502.8   0.028254207662589
                 142.6    0.10639582836653
                 46.47    0.28668420124307
                  16.7    0.44843796582416
                 6.356    0.26464118141135
                 1.316   0.015326060993048
 s    8 1.00
                 14710  -0.00032119389049893
                  2207  -0.0025461915683188
                 502.8  -0.012643359507821
                 142.6   -0.05195749170489
                 46.47   -0.14344713812646
                  16.7   -0.33243762329603
                 6.356   -0.21865906750347
                 1.316     1.0955904138622
 s    1 1.00
                0.3897                   1
 p    3 1.00
                 22.67   0.064834021493887
                 4.977    0.34053535983101
                 1.347    0.73464640679382
 p    1 1.00
                0.3471                   1
 d    1 1.00
                  1.64                   1

6 0
 s    8 1.00
                 14710  0.00072067370873197
                  2207  0.0055504869689163
                 502.8   0.028254207662589
                 142.6    0.10639582836653
                 46.47    0.28668420124307
                  16.7    0.44843796582416
                 6.356    0.26464118141135
                 1.316   0.015326060993048
 s    8 1.00
                 14710  -0.00032119389049893
                  2207  -0.0025461915683188
                 502.8  -0.012643359507821
                 142.6   -0.05195749170489
                 46.47   -0.14344713812646
                  16.7   -0.33243762329603
                 6.356   -0.21865906750347
                 1.316     1.0955904138622
 s    1 1.00
                0.3897                   1
 p    3 1.00
                 22.67   0.064834021493887
                 4.977    0.34053535983101
                 1.347    0.73464640679382
 p    1 1.00
                0.3471                   1
 d    1 1.00
                  1.64                   1

7 0
 s    3 1.00
                 13.01   0.033498726389998
                 1.962    0.23480080117413
                0.4446     0.8136829578829
 s    1 1.00
                 0.122                   1
 p    1 1.00
                 0.727                   1

8 0
 s    8 1.00
                 14710  0.00072067370873197
                  2207  0.0055504869689163
                 502.8   0.028254207662589
                 142.6    0.10639582836653
                 46.47    0.28668420124307
                  16.7    0.44843796582416
                 6.356    0.26464118141135
                 1.316   0.015326060993048
 s    8 1.00
                 14710  -0.00032119389049893
                  2207  -0.0025461915683188
                 502.8  -0.012643359507821
                 142.6   -0.05195749170489
                 46.47   -0.14344713812646
                  16.7   -0.33243762329603
                 6.356   -0.21865906750347
                 1.316     1.0955904138622
 s    1 1.00
                0.3897                   1
 p    3 1.00
                 22.67   0.064834021493887
                 4.977    0.34053535983101
                 1.347    0.73464640679382
 p    1 1.00
                0.3471                   1
 d    1 1.00
                  1.64                   1

[5d]
[7f]
[9g]

[MO]
 Sym= A
 Ene=               0
 Spin= Alpha
 Occup=    1.00000
   1       1.0018572172534
   2    -0.00095045240011552
   3    -0.0094612762706091
   4    -0.00016262271350291
   5    0.00050958302013889
   6    0.0030091358788205
   7    -0.0016211306157978
   8    0.00024915714753322
   9    0.0015870741618832
  10    -8.8439031714653e-05
  11    -0.00011944510892333
  12    -8.9625528249631e-05
  13    -0.00030169139870724
  14    -1.6443721271178e-05
  15    -0.0001947978922231
  16    -0.00085690873954139
  17    0.0027261336139782
  18    0.0010580596938209
  19    7.8109599872143e-06
  20    0.00012404142890494
  21    -0.0011241638000453
  22    -4.4786784472568e-05
  23    -0.00035286410714695
  24    7.2189130837224e-05
  25    -2.1278389376722e-05
  26    1.9272996526277e-06
  27    -0.00020046418441227
  28    5.8876243545719e-06
  29    -9.1682561811953e-06
  30    0.0003841306755613
  31    -6.3900239769911e-05
  32    6.0951686357721e-07
  33    -3.0815392634469e-05
  34    -2.3697085659453e-06
  35    9.3422895148995e-05
  36    1.2000007680073e-05
  37    -0.00023993885825433
  38    0.00011637607524326
  39    -1.275521077988e-05
  40    -0.00035074199558949
  41    -1.6630359606047e-05
  42    2.0946112598747e-05
  43    -1.2000488769681e-05
  44    -6.1820970134301e-06
  45    1.1910383340952e-05
  46    1.4021637899001e-05
  47    3.2739996340185e-06
  48    -1.6074415774703e-05
  49    5.2169276678415e-05
  50    4.6455625917025e-05
  51    -0.0001941887278657
  52    -0.00011106158010491
  53    -1.3258272305763e-05
  54    -0.00035260439982006
  55    2.0577364315888e-05
  56    8.600462611798e-06
  57    -1.3893945691593e-05
  58    -5.6026848698255e-06
  59    -1.0017650878998e-05
  60    1.8505533214744e-05
  61    -1.5015286279291e-06
  62    0.0001422530574094
  63    -9.7868934888515e-05
  64    -0.0007311392677964
  65    -0.00044741227231283
  66    -0.00094324378837488
  67    0.00073635377620735
  68    -0.0004221265680216
  69    -0.0014754541574205
  70    0.00094991858741441
  71    -3.2765996497906e-05
  72    8.4484074599463e-05
  73    0.00024452832665113
  74    0.00010654755273523
  75    -0.00010766147964211
  76    -0.0030667252170073
  77    0.00087023873123994
  78    5.4864421197896e-05
  79    -5.3908536370461e-05
  80    -0.00032282079672249
  81    0.00013307636920945
  82    -0.00011507128620006
  83    -0.00067385021230207
  84    -0.00045032109520217
  85    0.0011365113763025
  86    0.00037010175708356
  87    -0.00041382647232588
  88      0.00169591579401
  89    0.00037907817629916
  90    9.7253335172603e-05
  91    4.1918929540369e-05
  92    -0.00016876184262334
  93    0.0001803163326409
  94    0.00012810405783041
 Sym= A
 Ene=               1
 Spin= Alpha
 Occup=    1.00000
   1    -0.00019479673382392
   2    -0.00085690171751296
   3    0.0027261374285157
   4    -0.0010580485374945
   5    -1.3847204705789e-05
   6    -0.00012351290400943
   7    0.0011241673219395
   8    1.7166500474585e-05
   9    0.00035528066832561
  10    7.4729182677017e-05
  11    -1.9932872027786e-05
  12    -1.4710006107871e-05
  13    -0.00019899755737683
  14    -9.4930438883193e-06
  15       1.0018572168041
  16    -0.00095046562236955
  17    -0.0094612791179073
  18    0.00016260096083763
  19    -2.0689096666872e-05
  20    -0.0030519185098191
  21    0.0016211244508166
  22    -3.0220448685503e-05
  23    -0.0016062332924852
  24    -0.00010310834128656
  25    -0.00012048525457607
  26    6.4328546213482e-06
  27    -0.00031015926961067
  28    -4.5464671931739e-06
  29     -0.00306674544772
  30    0.00087023360496238
  31    -5.4863999648052e-05
  32    2.9676543110328e-06
  33    0.00032727941003835
  34    0.00014225328934817
  35    -9.7870819469446e-05
  36    -0.0007311401980799
  37    0.00044739639802556
  38    -0.0010567947151919
  39    -0.00056138245904506
  40    0.00042211634836698
  41    -0.001617999772791
  42    -0.00067928173045011
  43    3.8362340519356e-05
  44    6.4505213942404e-05
  45    -0.0002212666461959
  46    0.00014761425598784
  47    0.00012069611922931
  48    0.00013307664644954
  49    -0.00011507272024481
  50    -0.00067385119866678
  51    0.0004503258162226
  52    0.0010549842436437
  53    -0.00056183411048969
  54    0.00041383069902167
  55     0.001604328785979
  56    -0.00066781211121678
  57    3.8158759672818e-05
  58    6.3527163569667e-05
  59    0.00021822688268572
  60    0.00014619844757329
  61    -0.00011887874376572
  62    -2.3697092719793e-06
  63    9.3422845114004e-05
  64    1.1999252018637e-05
  65    0.00023994242239704
  66    0.00011681881558284
  67    -7.6496656788829e-06
  68    0.00035074383879309
  69    -2.0017913517269e-05
  70    -1.7741696918634e-05
  71    -8.2960121447135e-06
  72    -5.5198496947493e-06
  73    -1.2348757534031e-05
  74    1.6160544020432e-05
  75    -4.2976344332994e-06
  76    -9.1695719765762e-06
  77    0.00038412834648353
  78    6.3900533706714e-05
  79    5.9513648186102e-06
  80    3.0241443889778e-05
  81    -1.6074501769484e-05
  82    5.2170350753363e-05
  83    4.6457325633964e-05
  84    0.0001941926130617
  85    -0.00010707195904842
  86    3.2344054609376e-05
  87    0.0003526064670278
  88    1.8771237807983e-05
  89    -1.2041978990751e-05
  90    -1.6716050091519e-05
  91    -5.7783769884416e-06
  92    8.4627554574312e-06
  93    1.687629902288e-05
  94    5.0559745554822e-07
 Sym= A
 Ene=               2
 Spin= Alpha
 Occup=    1.00000
   1    6.0930150562492e-05
   2    8.4313112686835e-05
   3    -0.0015090711952556
   4    -0.00013070322551603
   5    2.5114440782764e-05
   6    -1.3970768141246e-05
   7    -0.00083623649853252
   8    -0.00023177709026912
   9    0.00016770600576413
  10    1.8840342464761e-05
  11    1.7922558834461e-05
  12    -3.8482001424625e-05
  13    -0.00010192169543235
  14    -6.0823060923447e-06
  15    -3.4455584215543e-05
  16    7.8832481295911e-05
  17    0.0038481675345028
  18    0.00026654143564241
  19    0.00047946084074129
  20    -0.00028923642463557
  21    -0.00032424309424142
  22    0.0011555199734211
  23    -0.0010087861866603
  24    -2.8157004279545e-06
  25    8.7445311937113e-07
  26    5.7264389108892e-05
  27    5.0183623882848e-05
  28    -1.9672116876469e-05
  29    -0.00023745032591971
  30    -0.00014174664414592
  31    5.9471477614882e-07
  32    -0.00014131363123111
  33    0.00011831821074164
  34    9.536870619755e-05
  35    0.00017473333165093
  36    -0.00069596246168408
  37    6.0207514777845e-06
  38    3.9910372014113e-06
  39    -5.0124318939427e-05
  40    4.9451143038828e-05
  41    -0.00039617451523263
  42    0.00012107334477474
  43    2.1575916346481e-05
  44    -1.2629568627878e-05
  45    -3.2080209068495e-06
  46    2.0980069854064e-05
  47    1.2538496770419e-05
  48       1.0010143519036
  49    -0.0043965525066314
  50    -0.011630840400423
  51    -0.0010373114392494
  52    -0.0026273932743086
  53    0.0015777453108952
  54    5.434062987985e-05
  55    7.2140692005029e-06
  56    5.8819995064412e-05
  57    1.7097158030657e-05
  58    4.6564547957976e-05
  59    0.00010031172840245
  60    8.0076468780628e-05
  61    -7.0628490009365e-05
  62    -2.4740546103077e-05
  63    -4.1243297386349e-05
  64    0.00011664364651818
  65    -2.9507286211131e-05
  66    6.0080113043001e-06
  67    -2.0482163733597e-06
  68    0.00018544491768917
  69    2.3034279021585e-05
  70    -1.3320182510045e-05
  71    -3.3130125552899e-06
  72    4.0695722823611e-06
  73    2.8534822538727e-06
  74    -1.5669607770441e-07
  75    -1.3032011015106e-06
  76    0.00011668986760419
  77    -0.00016311401373974
  78    -4.3071672862384e-05
  79    -4.2923708507994e-06
  80    -2.9998837520217e-06
  81    1.2472604848376e-05
  82    2.8329024743744e-05
  83    4.135039815923e-05
  84    2.3038811037331e-05
  85    1.3060638021526e-05
  86    1.676580360265e-05
  87    -4.6740176065638e-05
  88    -2.3101734349138e-05
  89    -3.9308753067854e-05
  90    1.0111425090442e-05
  91    1.0662104644872e-05
  92    -4.6024554307308e-06
  93    -1.7601501717561e-05
  94    1.0879779063136e-06
 Sym= A
 Ene=               3
 Spin= Alpha
 Occup=    1.00000
   1    -3.4425398613746e-05
   2    7.8944330527746e-05
   3    0.0038482713520259
   4    -0.00026656916310053
   5    0.00052255635721941
   6    0.00020163154404241
   7    0.00032432326679734
   8    0.0013131306829515
   9    0.00079276607107987
  10    1.2978853250454e-05
  11    -2.5347364922388e-06
  12    -4.6064599499086e-05
  13    5.9279816542003e-05
  14    1.9575050737118e-05
  15    6.0930970332411e-05
  16    8.4283572149996e-05
  17    -0.0015092141941896
  18    0.00013075829253838
  19    2.7174468903931e-05
  20    9.4013614102154e-06
  21    0.00083631726431408
  22    -0.00025734839968115
  23    -0.00012487202279796
  24    9.2503812890735e-06
  25    1.659097002764e-05
  26    2.4317671384169e-05
  27    -0.00010746067072361
  28    9.0937932069769e-06
  29    0.00011668774353923
  30    -0.00016312210356149
  31    4.307097249997e-05
  32    -3.7064796831793e-06
  33    3.7000215738443e-06
  34    -2.4741582480404e-05
  35    -4.1236458183706e-05
  36    0.0001166792525211
  37    2.9486823766493e-05
  38    6.2824428386079e-06
  39    9.8548432393372e-07
  40    -0.00018546351819561
  41    2.5011236924112e-05
  42    9.1265621983101e-06
  43    -2.313394803391e-06
  44    3.7822648567456e-06
  45    -3.6896177320518e-06
  46    4.1916167357172e-07
  47    1.9912249588999e-06
  48    1.2470769781676e-05
  49    2.8322949472265e-05
  50    4.1358313373957e-05
  51    -2.3034854025497e-05
  52    9.951582317763e-06
  53    -1.8786892260543e-05
  54    4.6734255118788e-05
  55    -1.5932595955244e-05
  56    4.2712700927626e-05
  57    8.7502106575186e-06
  58    1.0688777244037e-05
  59    4.3100320471363e-06
  60    -1.8386891870154e-05
  61    7.7916813103589e-07
  62    9.5368760480223e-05
  63    0.00017474305961904
  64    -0.00069594844598032
  65    -6.0185094717044e-06
  66    1.2647711350328e-05
  67    4.865935537278e-05
  68    -4.945584303701e-05
  69    -0.00041116862083353
  70    -5.0442760882997e-05
  71    1.9100852877404e-05
  72    -1.0258988527143e-05
  73    1.2992513542689e-05
  74    1.9549774937288e-05
  75    -1.4540122362195e-05
  76    -0.00023742406439144
  77    -0.00014176297859527
  78    -6.0294418178735e-07
  79    -0.00015970395222287
  80    -9.1983261605668e-05
  81       1.0010143179214
  82    -0.0043983871986158
  83    -0.011632937274017
  84    0.0010383522348763
  85    -0.0028619568147861
  86    -0.001097722479018
  87    -5.3623788373126e-05
  88    -3.462412199762e-06
  89    -5.9307646771457e-05
  90    4.3938846164089e-05
  91    3.3584165736132e-05
  92    -7.5499303339368e-05
  93    9.5578216391949e-05
  94    7.7620507626122e-05
 Sym= A
 Ene=               4
 Spin= Alpha
 Occup=    1.00000
   1    6.2558785694049e-05
   2    9.1929647884811e-05
   3    -0.0014449653785851
   4    -0.00014159862094415
   5    -3.0339030416154e-05
   6    -2.3791515165114e-05
   7    -0.00078281017866881
   8    0.00016507064539756
   9    0.00019747531299167
  10    3.7672370832012e-05
  11    3.4796928142169e-05
  12    4.9440764346353e-05
  13    -9.6232379793019e-05
  14    5.4742883485473e-06
  15    -2.8420909061237e-05
  16    8.8436266799072e-05
  17    0.0037585688538908
  18    0.00026731171224161
  19    -0.00047518527901324
  20    -0.00029032860844097
  21    -0.00030384106402761
  22    -0.0011325195260675
  23    -0.00097414965125307
  24    5.3632253792969e-06
  25    1.2483735060655e-05
  26    -5.4238770033169e-05
  27    5.1150193076761e-05
  28    1.5607225817872e-05
  29    -0.000247052451274
  30    -0.00014046138283972
  31    3.5268548645598e-06
  32    0.00013994254803572
  33    0.00011992109795966
  34       1.0010112260582
  35    -0.0043833475657303
  36    -0.011577260288598
  37    -0.0010537309293042
  38    0.0026303183335768
  39    0.0015391481231358
  40    5.3543389527176e-05
  41    1.8881817938452e-05
  42    2.5063586467842e-05
  43    1.589356146763e-05
  44    4.7813272405928e-05
  45    -0.00010109304735128
  46    7.8941733793548e-05
  47    6.8290139703394e-05
  48    9.3497150300436e-05
  49    0.00017055977831003
  50    -0.00067952784652348
  51    4.876720808415e-06
  52    -1.306815864022e-06
  53    -4.7635466103464e-05
  54    5.2898342279428e-05
  55    0.00038376347344024
  56    0.00011527059588275
  57    2.120708957396e-05
  58    -1.234805739834e-05
  59    2.6684374835263e-06
  60    1.952674311867e-05
  61    -1.265350218828e-05
  62    2.726825220558e-05
  63    5.8421923879116e-05
  64    -2.2235222061747e-05
  65    3.3027120138926e-05
  66    -3.3132511347448e-07
  67    2.8272035394604e-06
  68    -5.7728079394536e-05
  69    1.7057798719794e-05
  70    -1.4205756794874e-05
  71    7.6749484562305e-06
  72    1.0492161083668e-05
  73    -2.031255296872e-06
  74    -1.6480460523115e-05
  75    3.1353004189946e-06
  76    8.540956662934e-05
  77    -0.00012966977247773
  78    -6.3564228238569e-05
  79    1.7418040459211e-05
  80    -1.6703065188837e-05
  81    -2.4931869857454e-05
  82    -4.2396263440784e-05
  83    0.00012485034325764
  84    -2.4260541591562e-05
  85    -5.4551132985987e-06
  86    5.0662895861747e-06
  87    0.00016219920363557
  88    -1.9853976477697e-05
  89    -2.7964474948518e-05
  90    5.1991664919361e-06
  91    3.0930377105864e-06
  92    2.4359913900026e-06
  93    3.2641830035962e-06
  94    4.7490404097225e-06
 Sym= A
 Ene=               5
 Spin= Alpha
 Occup=    1.00000
   1    -2.8390324281451e-05
   2    8.8562982688826e-05
   3    0.0037586678481655
   4    -0.00026735093194457
   5    -0.00041771552361091
   6    0.0003685452312658
   7    0.00030391744887439
   8    -0.00094617458641401
   9     0.001155963206468
  10    -1.2275684484992e-05
  11    1.5039055995757e-05
  12    6.130539243089e-05
  13    4.0941040515227e-05
  14    -1.3238522059997e-05
  15    6.2558291403904e-05
  16    9.1894438003139e-05
  17    -0.0014450936735068
  18    0.00014165608848088
  19    -2.5760905341559e-05
  20    2.8705608781218e-05
  21    0.00078289294262536
  22    0.00012825321387558
  23    -0.00022308374050243
  24    5.3125988892082e-05
  25    3.521246181353e-05
  26    -5.1763728385107e-05
  27    -8.7312664578621e-05
  28    6.5880517695869e-07
  29    8.5400134595362e-05
  30    -0.00012969946173237
  31    6.3563039420883e-05
  32    2.0053598932925e-05
  33    1.3426911724206e-05
  34    2.7265818908974e-05
  35    5.8417004357302e-05
  36    -2.221779230734e-05
  37    -3.3022592446905e-05
  38    -8.1365585675354e-07
  39    -2.732557780715e-06
  40    5.7720704434951e-05
  41    1.9275795045823e-05
  42    1.1019797888678e-05
  43    7.1564639265318e-06
  44    1.087696417779e-05
  45    1.3636702580348e-06
  46    -1.6779866546668e-05
  47    -1.2647501889133e-06
  48    -2.493276026417e-05
  49    -4.2387882946602e-05
  50    0.00012488711506265
  51    2.423960552978e-05
  52    -6.2662928479963e-06
  53    -4.0319476108314e-06
  54    -0.00016221992831982
  55    -1.4713634016948e-05
  56    3.0992500149779e-05
  57    5.6007652667199e-06
  58    3.8714007642569e-06
  59    -1.907732722842e-07
  60    3.4947073723693e-06
  61    -4.1409934042638e-06
  62       1.0010111914702
  63    -0.0043851823585406
  64     -0.01157936423223
  65     0.001054795421787
  66    0.0023234299800399
  67    -0.0019730351004463
  68    -5.2811873766138e-05
  69    1.4480152794015e-05
  70    -2.8317958733191e-05
  71    -1.6829388891685e-05
  72    5.8928082426319e-05
  73    0.00011319486563095
  74    6.005304421301e-05
  75    -5.8933235947661e-05
  76    -0.00024703635957789
  77    -0.0001404904763797
  78    -3.5348162372221e-06
  79    0.00011698373839062
  80    -0.00014239715279641
  81    9.3496543778617e-05
  82    0.0001705708172641
  83    -0.00067950045457766
  84    -4.8773950638299e-06
  85    6.9646544034021e-06
  86    4.7131715386384e-05
  87    -5.2902615256819e-05
  88    0.00035789939789407
  89    -0.0001801609828018
  90    2.0526968985986e-05
  91    -1.435580066514e-05
  92    7.1124243159371e-06
  93    1.9132740278748e-05
  94    1.0316798752363e-05
 Sym= A
 Ene=               6
 Spin= Alpha
 Occup=    1.00000
   1    -0.0024049351841877
   2    -0.0033817298583848
   3     0.012700835391711
   4    0.0094307045085083
   5    0.0093825008793216
   6     0.010982394344488
   7     0.031366262142312
   8     0.027985898696444
   9     0.011917203014614
  10     0.030344189697508
  11     0.012226295307373
  12    -0.011251633264411
  13    -0.0043361906214929
  14    -0.022711790221598
  15    -0.0013388727084061
  16    -0.024626761573948
  17    -0.074608625698461
  18     0.032489149060271
  19    -0.0027689699228684
  20    -0.0065007216914803
  21     0.017035132808625
  22    -0.025180741170807
  23    -0.0046914682224938
  24    0.00015807071905687
  25    0.00075763005112742
  26    -0.0016980718246355
  27    -0.00089680065213028
  28    -0.00064553601222414
  29    -0.0060256150537868
  30     0.027847247158509
  31    -0.0023393187153896
  32    -4.9423882796724e-05
  33    0.00035620127032354
  34    0.00046612013307423
  35    0.0011631615368079
  36    -0.0026643364611383
  37    -0.0021866756570928
  38     0.002233656976813
  39    3.7668328344465e-05
  40    -0.0032698279085079
  41    0.0040545504647222
  42    -0.0011458465306521
  43    -2.3003173475312e-05
  44    0.00015971891109198
  45    -0.00011267726753254
  46    -0.0002255786686554
  47    0.0003737362281759
  48    -0.0011870212840936
  49    0.0010394152011659
  50     0.019380357849618
  51    -0.0061355782433091
  52    -0.0046994704100499
  53    0.0055171438393547
  54    -0.0047040676670095
  55    -0.0073040479484526
  56     0.007907111489864
  57    9.6843981430625e-05
  58    0.00039770141741635
  59    -0.00011875256569032
  60    -0.00048178737416521
  61    -0.00043519762725827
  62    -0.0014654899970264
  63    -0.00040397387727966
  64     0.012254018007461
  65      0.49224475439459
  66      0.15173013609431
  67      0.42556822786133
  68      0.34188469405205
  69      0.10626100007686
  70      0.29243915683222
  71    -0.0099338288380756
  72    -0.003097712471383
  73    0.0044397867280072
  74    0.0013927374005574
  75    0.0087513045700726
  76     0.041275257625939
  77     0.044905203117003
  78    -0.0022905460615843
  79    -0.0031590158226458
  80    0.0002907483019135
  81    0.0010512853863763
  82    -0.001570875915532
  83    -0.016803708190012
  84    -0.0039655086580953
  85    0.0062866108033469
  86    -0.0023307044673981
  87    -0.0063952215856382
  88    0.0066121486367309
  89    -0.00071285548427497
  90    0.0006194009233292
  91    0.00015859409595094
  92    -0.00031592340282802
  93    -0.00025371479741939
  94    -0.00038588412109496
 Sym= A
 Ene=               7
 Spin= Alpha
 Occup=    1.00000
   1    0.0013382502157069
   2     0.024623212303132
   3     0.074605898239028
   4     0.032484928604678
   5    0.0015976627349806
   6    -0.0068830855353996
   7     0.017032605517933
   8     0.023981493058544
   9    -0.0089950960547564
  10    0.00032850648020264
  11    -0.0006339300309633
  12    -0.0014888489522473
  13    0.0011775873515081
  14    -0.00076731784723307
  15    0.0024046513769559
  16    0.0033794692678688
  17    -0.012703177111637
  18    0.0094270990970749
  19    -0.0073389723954421
  20      0.01244905914071
  21      0.03136259388694
  22    -0.025497259753074
  23     0.016600816728942
  24    -0.025755637903299
  25    -0.0080938269415769
  26    -0.018821335123876
  27    0.0069822297895001
  28     -0.02448719926664
  29    -0.041277293682472
  30    -0.044906830761434
  31    -0.0022906686793663
  32    0.0031616095457221
  33    -0.00026235485652946
  34    0.0014645794377406
  35    0.00040348094246493
  36    -0.012253636885438
  37      0.49217291313535
  38    -0.075595451966577
  39      0.44551801482574
  40      0.34183478349336
  41    -0.053912831622522
  42      0.30649505979065
  43    0.0082071050134131
  44    0.0015296044952832
  45    0.0068766769226765
  46    -0.0023885696274751
  47    0.0091555466577505
  48    -0.0010515506673099
  49    0.0015735854850148
  50     0.016812631757598
  51    -0.0039661097823452
  52    -0.0066028898355976
  53    -0.0012023225358205
  54    -0.0063959061692768
  55    -0.0066423262893449
  56    0.00044736202968585
  57    -0.00050447453692756
  58    -8.9056634140202e-05
  59    -0.000437002844709
  60    0.00032011309168693
  61    -0.00040748470586466
  62    -0.0004661865611256
  63    -0.0011637152620949
  64    0.0026637405091969
  65    -0.0021877434110198
  66    -0.0021926046939887
  67    0.00042596487434613
  68    -0.0032701565189164
  69    -0.0041917047209328
  70    -0.00042357481775813
  71    4.9424230882003e-05
  72    -0.00022220311906618
  73    -6.0447882531215e-05
  74    0.00024087515323647
  75    0.00034020667227075
  76    0.0060248628115902
  77    -0.027847822444756
  78    -0.0023393864264461
  79    0.00011054193783793
  80    0.00034206726105915
  81    0.0011868852437015
  82    -0.0010391225065863
  83     -0.01937808098813
  84    -0.0061342991461526
  85    0.0055852742359061
  86     0.004616927781566
  87    -0.004702555744583
  88    0.0085652295392142
  89    0.0065182958030274
  90    -6.9854606126329e-05
  91    -0.00031607512188449
  92    -5.7867464451867e-05
  93    0.00049729589735268
  94    -0.00049758025392268
 Sym= A
 Ene=               8
 Spin= Alpha
 Occup=    1.00000
   1    -0.0023806970871936
   2    -0.0028417640054525
   3     0.017147304436359
   4    0.0088674319776996
   5    -0.0061863885764871
   6      0.01498390891063
   7     0.033646370771318
   8    -0.024187905762917
   9     0.021946574931568
  10     0.019873547879542
  11    0.0031298350481632
  12      0.02504263921355
  13    -0.0095674231681109
  14     0.024995950727732
  15    -0.0016995565676828
  16    -0.023442665212153
  17    -0.068337732183962
  18     0.032732359416826
  19    0.0025928727063782
  20    -0.0039726115653651
  21     0.023436036957649
  22     0.028189083799008
  23    -0.0063803986017507
  24    -0.00021955073864869
  25    0.00012802533928635
  26    0.0015953911930153
  27    -0.0016279465897547
  28    0.00092569495775405
  29    -0.0036140040311252
  30      0.02186313287514
  31    -0.00032050847808138
  32    -0.00057343902440727
  33    -0.00035671272789097