[Molden Format]
made by pyscf v[2.0.1]
[Atoms] (AU)
C   1   6     0.00000000000000     0.00000000000000     0.00000000000000
C   2   6     2.85272299873892     0.00000000000000     0.00000000000000
H   3   1     3.62066923017674     0.00000000000000     1.90331545357504
F   4   9     3.65943188126013    -2.04308229183900    -1.24074875274501
F   5   9     3.65943188126013     2.04308229183900    -1.24074875274501
F   6   9    -0.80670888252121     0.46714714892290     2.34423041954446
H   7   1    -0.76794623143782    -1.78853148675225    -0.65097222422570
F   8   9    -0.80670888252121     1.86469774548472    -1.49550828705447
[GTO]
1 0
 s    8 1.00
                  6665  0.00069158396281299
                  1000  0.0053257961529341
                   228   0.027060721042034
                 64.71    0.10165684614077
                 21.06     0.2745748236174
                 7.495    0.44829431892377
                 2.797    0.28490261071525
                0.5215   0.015194859206082
 s    8 1.00
                  6665  -0.00029326965268655
                  1000  -0.0023180354739745
                   228  -0.011499786038565
                 64.71  -0.046826727009787
                 21.06   -0.12846616875047
                 7.495   -0.30126627246289
                 2.797   -0.25563070233011
                0.5215      1.093793361012
 s    1 1.00
                0.1596                   1
 p    3 1.00
                 9.439   0.056979251590039
                 2.002    0.31320721150073
                0.5456    0.76037674173753
 p    1 1.00
                0.1517                   1
 d    1 1.00
                  0.55                   1

2 0
 s    8 1.00
                  6665  0.00069158396281299
                  1000  0.0053257961529341
                   228   0.027060721042034
                 64.71    0.10165684614077
                 21.06     0.2745748236174
                 7.495    0.44829431892377
                 2.797    0.28490261071525
                0.5215   0.015194859206082
 s    8 1.00
                  6665  -0.00029326965268655
                  1000  -0.0023180354739745
                   228  -0.011499786038565
                 64.71  -0.046826727009787
                 21.06   -0.12846616875047
                 7.495   -0.30126627246289
                 2.797   -0.25563070233011
                0.5215      1.093793361012
 s    1 1.00
                0.1596                   1
 p    3 1.00
                 9.439   0.056979251590039
                 2.002    0.31320721150073
                0.5456    0.76037674173753
 p    1 1.00
                0.1517                   1
 d    1 1.00
                  0.55                   1

3 0
 s    3 1.00
                 13.01   0.033498726389998
                 1.962    0.23480080117413
                0.4446     0.8136829578829
 s    1 1.00
                 0.122                   1
 p    1 1.00
                 0.727                   1

4 0
 s    8 1.00
                 14710  0.00072067370873197
                  2207  0.0055504869689163
                 502.8   0.028254207662589
                 142.6    0.10639582836653
                 46.47    0.28668420124307
                  16.7    0.44843796582416
                 6.356    0.26464118141135
                 1.316   0.015326060993048
 s    8 1.00
                 14710  -0.00032119389049893
                  2207  -0.0025461915683188
                 502.8  -0.012643359507821
                 142.6   -0.05195749170489
                 46.47   -0.14344713812646
                  16.7   -0.33243762329603
                 6.356   -0.21865906750347
                 1.316     1.0955904138622
 s    1 1.00
                0.3897                   1
 p    3 1.00
                 22.67   0.064834021493887
                 4.977    0.34053535983101
                 1.347    0.73464640679382
 p    1 1.00
                0.3471                   1
 d    1 1.00
                  1.64                   1

5 0
 s    8 1.00
                 14710  0.00072067370873197
                  2207  0.0055504869689163
                 502.8   0.028254207662589
                 142.6    0.10639582836653
                 46.47    0.28668420124307
                  16.7    0.44843796582416
                 6.356    0.26464118141135
                 1.316   0.015326060993048
 s    8 1.00
                 14710  -0.00032119389049893
                  2207  -0.0025461915683188
                 502.8  -0.012643359507821
                 142.6   -0.05195749170489
                 46.47   -0.14344713812646
                  16.7   -0.33243762329603
                 6.356   -0.21865906750347
                 1.316     1.0955904138622
 s    1 1.00
                0.3897                   1
 p    3 1.00
                 22.67   0.064834021493887
                 4.977    0.34053535983101
                 1.347    0.73464640679382
 p    1 1.00
                0.3471                   1
 d    1 1.00
                  1.64                   1

6 0
 s    8 1.00
                 14710  0.00072067370873197
                  2207  0.0055504869689163
                 502.8   0.028254207662589
                 142.6    0.10639582836653
                 46.47    0.28668420124307
                  16.7    0.44843796582416
                 6.356    0.26464118141135
                 1.316   0.015326060993048
 s    8 1.00
                 14710  -0.00032119389049893
                  2207  -0.0025461915683188
                 502.8  -0.012643359507821
                 142.6   -0.05195749170489
                 46.47   -0.14344713812646
                  16.7   -0.33243762329603
                 6.356   -0.21865906750347
                 1.316     1.0955904138622
 s    1 1.00
                0.3897                   1
 p    3 1.00
                 22.67   0.064834021493887
                 4.977    0.34053535983101
                 1.347    0.73464640679382
 p    1 1.00
                0.3471                   1
 d    1 1.00
                  1.64                   1

7 0
 s    3 1.00
                 13.01   0.033498726389998
                 1.962    0.23480080117413
                0.4446     0.8136829578829
 s    1 1.00
                 0.122                   1
 p    1 1.00
                 0.727                   1

8 0
 s    8 1.00
                 14710  0.00072067370873197
                  2207  0.0055504869689163
                 502.8   0.028254207662589
                 142.6    0.10639582836653
                 46.47    0.28668420124307
                  16.7    0.44843796582416
                 6.356    0.26464118141135
                 1.316   0.015326060993048
 s    8 1.00
                 14710  -0.00032119389049893
                  2207  -0.0025461915683188
                 502.8  -0.012643359507821
                 142.6   -0.05195749170489
                 46.47   -0.14344713812646
                  16.7   -0.33243762329603
                 6.356   -0.21865906750347
                 1.316     1.0955904138622
 s    1 1.00
                0.3897                   1
 p    3 1.00
                 22.67   0.064834021493887
                 4.977    0.34053535983101
                 1.347    0.73464640679382
 p    1 1.00
                0.3471                   1
 d    1 1.00
                  1.64                   1

[5d]
[7f]
[9g]

[MO]
 Sym= A
 Ene=               0
 Spin= Alpha
 Occup=    1.00000
   1    -0.00021217388110194
   2    -0.00087754854449281
   3    0.0028604972370948
   4    -0.0010843891364403
   5    -6.0913194998971e-05
   6    -8.5709739072142e-05
   7    0.0013089969185045
   8    0.00029808874781324
   9    0.00026979395660728
  10    0.00012441762575489
  11    1.8512483475344e-05
  12    -6.9180408272531e-06
  13    -0.00017876112986826
  14    -2.5121757103284e-05
  15       1.0018737608408
  16    -0.00092956876495569
  17    -0.0097191635929656
  18    0.00015380789578095
  19    -5.5924262849746e-05
  20    -0.0030436434467794
  21    0.0016896104076847
  22    -6.5306393000399e-05
  23    -0.0015351170559169
  24    -9.4045531221052e-05
  25    -0.00010612766543874
  26    1.3599105417874e-05
  27    -0.0003032334393108
  28    4.9656833639347e-06
  29    -0.0030914992922962
  30    0.00086389690054882
  31    -5.5099733798699e-05
  32    1.3735872670944e-05
  33    0.00033270470410913
  34    0.00014103841493183
  35    -9.8388449285746e-05
  36    -0.00070213154929017
  37    0.00044496038719722
  38    -0.0010608134610747
  39    -0.00054554106681083
  40    0.00042870914253804
  41    -0.0015820511155483
  42    -0.00069030596219536
  43    3.6937196642854e-05
  44    6.6327819158415e-05
  45    -0.00022176382552161
  46    0.00014519876657244
  47    0.0001215771383922
  48    0.00012680857981854
  49    -0.00012811078423654
  50    -0.0006142288331998
  51    0.00044637443067351
  52    0.0010619053533709
  53    -0.00055413856513273
  54    0.00044345286241214
  55    0.0015739352414707
  56    -0.00066470783712103
  57    3.8745098251847e-05
  58    6.4590944969111e-05
  59    0.00021590168552946
  60    0.00014207094836429
  61    -0.00011767120423975
  62    1.8546022635725e-05
  63    0.00015147390154386
  64    -5.1353852541533e-05
  65    0.00031285268452585
  66    -2.237787909346e-05
  67    -8.2790444884096e-05
  68    0.00031367124927911
  69    -2.6781635239707e-05
  70    -1.1209105850558e-05
  71    5.8609852269026e-06
  72    1.4284773998758e-06
  73    1.0102140725609e-05
  74    1.3756024229527e-05
  75    1.0284654233265e-06
  76    6.6246538459916e-05
  77    0.0005715244305168
  78    7.4024595478541e-05
  79    4.3602002586715e-05
  80    1.2234603915755e-05
  81    -1.3733684386626e-05
  82    1.2828083295907e-05
  83    -6.3891467233465e-05
  84    0.00012146170849388
  85    -4.6119889908823e-06
  86    5.3927426089347e-05
  87    0.00022016644670341
  88    3.6123476966326e-05
  89    -3.9460244105315e-05
  90    -1.7368795143675e-05
  91    8.9642718484444e-07
  92    -2.1897335332836e-06
  93    2.3268172191976e-05
  94    -2.6166944937861e-06
 Sym= A
 Ene=               1
 Spin= Alpha
 Occup=    1.00000
   1       1.0018737609665
   2    -0.0009295694615286
   3    -0.0097191753581944
   4    -0.00015385013437139
   5     0.002840965031828
   6    0.0010935462507741
   7    -0.0016896225930299
   8    0.0014202008849561
   9    0.00058640692093358
  10    0.00026998330391104
  11    -3.1632930144926e-05
  12    -0.00013939161482112
  13    -9.3065937283902e-05
  14    -0.00010142699515528
  15    -0.00021217451351533
  16    -0.00087756840309449
  17    0.0028604869083815
  18    0.0010844210923248
  19    5.9709243142543e-05
  20    8.6554396332157e-05
  21    -0.0013089882499285
  22    -0.00015156940991152
  23    -0.00037238550604278
  24    9.2474568787856e-05
  25    -1.7275738449647e-05
  26    6.5071550076325e-06
  27    -0.00019720652231712
  28    2.5987809612698e-05
  29    6.6248237691797e-05
  30    0.00057152792116685
  31    -7.4023848567395e-05
  32    3.4160052161466e-06
  33    -4.5156901273261e-05
  34    1.8545976113914e-05
  35    0.00015147557692085
  36    -5.1349899496498e-05
  37    -0.00031285181527887
  38    7.0146633722342e-05
  39    4.9342932673254e-05
  40    -0.00031367264553174
  41    1.3753819990858e-06
  42    2.8999286618487e-05
  43    -6.7979521824334e-06
  44    1.4552843723223e-06
  45    1.5422395245088e-05
  46    6.4471403045432e-06
  47    9.9095263725132e-07
  48    -1.3733601396596e-05
  49    1.2829152193018e-05
  50    -6.3889542589954e-05
  51    -0.000121468198578
  52    -5.2254186375385e-05
  53    -1.4108049604647e-05
  54    -0.00022017303955305
  55    4.9434329774715e-05
  56    -2.0447460850298e-05
  57    -1.3375725737238e-05
  58    -2.1521520098524e-06
  59    -3.8679549127391e-06
  60    2.5573359237679e-05
  61    1.7370947006132e-06
  62    0.00014103806166351
  63    -9.8381091648901e-05
  64    -0.00070212335945855
  65    -0.00044495882484921
  66    0.00014982483353599
  67    0.0011833949341869
  68    -0.00042870625992647
  69    0.00010758490744359
  70    0.0017227209827291
  71    -0.00024647177049735
  72    0.0001369305190045
  73    -0.00010265285738596
  74    -1.8428357930928e-05
  75    2.0746013424914e-05
  76    -0.0030914904043209
  77    0.00086390132945604
  78    5.5099207117661e-05
  79    -0.00030794125486899
  80    -0.00012669855266452
  81    0.00012680832385116
  82    -0.00012810830930348
  83    -0.00061422556261249
  84    -0.00044637428370782
  85    0.00088389762391068
  86    -0.00080833646463067
  87    -0.00044345039953235
  88    0.0011629287736774
  89    -0.0012516711479283
  90    -1.0323754864015e-06
  91    -8.8483523082167e-05
  92    0.00023261868057684
  93    0.00011910478830251
  94    0.00010094172597371
 Sym= A
 Ene=               2
 Spin= Alpha
 Occup=    1.00000
   1    9.8976272605902e-05
   2    0.0001531588985794
   3    -0.0017840770179104
   4    -0.00014391409245391
   5    -5.0949772270121e-05
   6    -3.0156421813675e-05
   7    -0.00081832241795531
   8    0.00018095520608791
   9    0.00024276723325948
  10    -1.3034757247646e-05
  11    3.0769529352721e-05
  12    7.6227282781823e-05
  13    -9.7894050520942e-05
  14    4.2274134114331e-05
  15    -4.9120790732068e-05
  16    3.2687565765356e-05
  17    0.0039167804435354
  18    0.00024352894582428
  19    -0.00045070900659335
  20    -0.00026307823504039
  21    -0.00034643310790024
  22    -0.0010652232531978
  23    -0.0010107031176498
  24    -4.1429025503698e-07
  25    1.440133373502e-05
  26    -6.2851752554216e-05
  27    3.4678396730784e-05
  28    3.8398832306124e-05
  29    -0.00023892237762023
  30    -0.00015281891638225
  31    4.573519310524e-06
  32    0.00012937382600893
  33    0.00012559230048904
  34       1.0010161624229
  35    -0.0040435360720816
  36     -0.01117335105688
  37    -0.0011336540738732
  38    0.0024052932702227
  39    0.0014725611956749
  40    -1.587192871887e-05
  41    -0.00012207238788133
  42    -2.3120001044777e-07
  43    1.6799119409844e-05
  44    4.5118604238063e-05
  45    -0.00010020375792986
  46    8.6744013426649e-05
  47    6.6848890996638e-05
  48    0.00010725997869936
  49    0.00020038762451252
  50    -0.00076366628892999
  51    6.2119103791914e-06
  52    -1.2839001854772e-05
  53    -4.7994900664475e-05
  54    6.0144319809823e-05
  55    0.00039740256573544
  56    0.00010889094274618
  57    2.0835801603207e-05
  58    -1.2104135352942e-05
  59    4.7385724460838e-06
  60    2.1889686055567e-05
  61    -1.3177750682586e-05
  62    -2.0348432463225e-05
  63    -3.1616940911655e-05
  64    0.00015311326489853
  65    -1.055625406427e-05
  66    -3.5128244039776e-06
  67    -1.0618188907499e-05
  68    0.00013998108381273
  69    -1.3266003714051e-05
  70    -5.0399594465238e-05
  71    2.6365933317069e-06
  72    -1.1969727684618e-06
  73    1.3664022911318e-05
  74    -3.4519637359225e-06
  75    -6.2829038466372e-07
  76    7.2678873412789e-05
  77    -1.1139834737739e-05
  78    -4.0722981291546e-05
  79    -1.0285674505166e-05
  80    -1.4078737188382e-05
  81    -9.3875036820046e-06
  82    -1.1507305156185e-05
  83    0.00016589695508684
  84    2.0337737940561e-05
  85    -6.7460281074952e-06
  86    5.9440577816791e-06
  87    2.7098373564321e-05
  88    -5.5583663312254e-05
  89    2.9874481834864e-05
  90    -4.4556124226198e-06
  91    4.2118792328849e-06
  92    -1.4032670280993e-06
  93    -1.7212339723233e-05
  94    9.306030155639e-07
 Sym= A
 Ene=               3
 Spin= Alpha
 Occup=    1.00000
   1    -4.9113558002518e-05
   2    3.2731034731702e-05
   3     0.003916813336019
   4    -0.00024354276847886
   5    9.3085386109995e-05
   6    0.00051356551573221
   7    0.00034646334023078
   8    0.00058542958989965
   9    0.0013466490466282
  10    -6.1368312868058e-05
  11    4.1026355370097e-05
  12    -3.7214519697248e-05
  13    -5.2713106295992e-07
  14    3.998404695977e-07
  15    9.897535912507e-05
  16    0.00015314112237743
  17    -0.0017841301607569
  18    0.00014393759286458
  19    1.0913438679669e-05
  20    5.8191758617662e-05
  21    0.00081835127282258
  22    -0.0001662270662477
  23    -0.00025305248175918
  24    0.00012152619960283
  25    5.0246207646056e-05
  26    1.9675409182888e-05
  27    -2.0206355824112e-05
  28    1.4454621020307e-05
  29    7.2671705908782e-05
  30    -1.1148782589936e-05
  31    4.0722002275035e-05
  32    9.7119764034876e-06
  33    1.4482327952553e-05
  34    -2.0349456862537e-05
  35    -3.1615800086254e-05
  36    0.00015312973758695
  37    1.0550766590913e-05
  38    8.7807538777275e-06
  39    6.9360035016688e-06
  40    -0.00013998800285185
  41    4.2829637286224e-05
  42    2.9706167544797e-05
  43    9.3905294885032e-06
  44    -9.9962957831122e-07
  45    1.0825545536428e-05
  46    4.471116376408e-07
  47    -9.0953014173076e-07
  48    -9.3874192107879e-06
  49    -1.1505320324093e-05
  50    0.00016590309495141
  51    -2.0340884635204e-05
  52    -7.8969215668865e-06
  53    4.3055587058061e-06
  54    -2.7102060443442e-05
  55    -4.7089570703221e-05
  56    4.2011333844891e-05
  57    1.382752180864e-05
  58    2.3151955568489e-06
  59    -9.0871555162326e-06
  60    -6.6569876184351e-06
  61    3.6391402958847e-06
  62       1.0010161538687
  63    -0.0040439810463335
  64    -0.011173860189001
  65    0.0011340707111467
  66    -0.00056085617685912
  67    -0.0027640604865544
  68    1.6158381215104e-05
  69    -4.1366634301642e-05
  70    0.00011466719262793
  71    -0.00012756471062228
  72    7.823961068011e-05
  73    -3.9533985327296e-05
  74    3.3980632300108e-06
  75    1.9534277838976e-05
  76    -0.00023889838633348
  77    -0.00015280330733428
  78    -4.5767240691661e-06
  79    -7.3770730649215e-05
  80    -0.00016452259559889
  81    0.00010726048518241
  82    0.00020038566706132
  83    -0.00076367772995804
  84    -6.2127527403358e-06
  85    4.0712658939174e-05
  86    2.8473990241737e-05
  87    -6.014789490421e-05
  88    3.360013390993e-05
  89    -0.00041068500729306
  90    -2.086261107973e-05
  91    -1.6522409673868e-05
  92    2.2263569576837e-05
  93    -2.1855854037554e-06
  94    -6.8668405642082e-06
 Sym= A
 Ene=               4
 Spin= Alpha
 Occup=    1.00000
   1    -6.0768177959996e-05
   2    7.4677013459819e-06
   3     0.004018168286093
   4    -0.00024853895413605
   5    0.00040012440574801
   6    -0.00032390508453521
   7    0.00038133799553466
   8    0.0013406470383349
   9    -0.00072852755692352
  10    2.5943282668478e-06
  11    -3.6826061799827e-05
  12    6.7892127206522e-05
  13    4.1775924995378e-05
  14    3.5281803381171e-05
  15    8.7903954411313e-05
  16    0.00012033435137689
  17    -0.0018869145691686
  18    0.00012835325223214
  19    -7.5875234934654e-07
  20    -4.2895427025522e-06
  21    0.00084177904343631
  22    -0.00041714193829611
  23    0.0003313391588461
  24    2.7175546631628e-05
  25    -2.8863733298406e-06
  26    -6.852361728928e-05
  27    -5.816948361998e-05
  28    4.0695960483892e-05
  29    9.2838941268048e-05
  30    -6.1228938128224e-05
  31    -2.9812002467565e-05
  32    6.3693694363878e-05
  33    -1.6681419239001e-05
  34    -1.0906332279817e-05
  35    -1.2779408411307e-05
  36    0.00015429091356554
  37    -8.5490641699728e-06
  38    1.0293383940735e-05
  39    1.2747954872787e-05
  40    -7.7083674489399e-05
  41    7.7297086042889e-05
  42    -1.4638418387817e-05
  43    -7.3784301825098e-06
  44    -4.4114015954732e-06
  45    3.0026120818869e-07
  46    -1.5423598662577e-05
  47    -1.6179138031533e-06
  48    -6.0965471010248e-05
  49    -0.00011465730091984
  50    0.00039331510561466
  51    5.6893791424668e-06
  52    3.9865035891746e-05
  53    -1.8201350592713e-05
  54    -5.7157868607049e-05
  55    -9.7376475796786e-05
  56    2.6447451575218e-05
  57    1.3788799127665e-05
  58    1.0673168036769e-06
  59    7.125701898971e-06
  60    -1.1463622988835e-05
  61    6.6096887135359e-07
  62    0.00010690114791861
  63    0.00019823397572553
  64    -0.00076029174856281
  65    -4.3145451598569e-06
  66    4.6041513247624e-05
  67    7.739029546664e-06
  68    -7.4782765948615e-05
  69    -0.00023571214857446
  70    0.00034033885239509
  71    -2.645085501003e-05
  72    8.9630587646841e-06
  73    1.5045406515281e-05
  74    -5.8263627265733e-06
  75    -1.5462071678147e-05
  76    -0.00025527606511349
  77    -0.00014053679657897
  78    -6.7339811346062e-06
  79    -0.00016561885978909
  80    8.428606146779e-05
  81       1.0010147071581
  82    -0.0039513695176364
  83     -0.01106802916857
  84    0.0011126120971082
  85    -0.0021416873115402
  86    0.0017784381121327
  87    4.0938821940003e-05
  88    0.00012782912700308
  89    -0.00013108150129877
  90    -1.5115171471352e-05
  91    -5.03741165493e-05
  92    0.00011360287698924
  93    7.1681827726088e-05
  94    7.0640474154997e-05
 Sym= A
 Ene=               5
 Spin= Alpha
 Occup=    1.00000
   1    8.7898985759891e-05
   2    0.00012034827830074
   3    -0.001886766818014
   4    -0.00012830298833631
   5    3.761745423466e-06
   6    2.191251759641e-06
   7    -0.00084169813680386
   8    -0.00045404030639211
   9    0.00027869153883845
  10    -2.4801501312062e-06
  11    3.7263596736453e-05
  12    -5.6060870090847e-05
  13    -7.5289665387545e-05
  14    -1.6642885931352e-05
  15    -6.0809413100209e-05
  16    7.2909542205368e-06
  17    0.0040180442775834
  18    0.00024846452316593
  19    0.00044103836146557
  20    -0.00026507472087183
  21    -0.00038127695718436
  22    0.0011431387926855
  23    -0.0010106453943279
  24    4.972845079212e-06
  25    2.0543552689296e-05
  26    6.6888680152951e-05
  27    4.3160395012274e-05
  28    -4.6639368436337e-05
  29    -0.00025531194376133
  30    -0.00014051408747516
  31    6.7234437194279e-06
  32    -0.00013585936131055
  33    0.00012680357014159
  34    0.00010690053458233
  35    0.00019823975555906
  36    -0.00076026690514948
  37    4.3123081241288e-06
  38    8.498355582045e-06
  39    -4.5915931526043e-05
  40    7.4775209704405e-05
  41    -0.00040040751385606
  42    0.00010509460352999
  43    2.1416776752627e-05
  44    -1.1465507619562e-05
  45    -5.0712285784777e-06
  46    2.1812021770134e-05
  47    1.3711251993061e-05
  48       1.0010147434386
  49    -0.0039491750658429
  50    -0.011065501346352
  51    -0.0011117758562295
  52    -0.0024026972450271
  53    0.0014041961351769
  54    -4.0363986197739e-05
  55    0.00016757466395766
  56    -7.5328529660694e-05
  57    1.333968127031e-05
  58    4.9159099190418e-05
  59    0.00010165780590693
  60    8.8112901410368e-05
  61    -7.1515671262571e-05
  62    -1.0904313259924e-05
  63    -1.2779854080051e-05
  64    0.00015426192940007
  65    8.537024221237e-06
  66    -8.4539072931611e-06
  67    -1.4026915562304e-05
  68    7.7065029822793e-05
  69    4.0198525157423e-05
  70    -6.7620174338316e-05
  71    1.4355984625123e-05
  72    -3.0298937713259e-06
  73    -8.8344071873413e-06
  74    -2.8745055658872e-06
  75    -3.5924869055957e-06
  76    9.2822381090499e-05
  77    -6.1249564414757e-05
  78    2.9816333312637e-05
  79    3.7461250159514e-05
  80    -5.4147832209568e-05
  81    -6.0966071738864e-05
  82    -0.00011465545646224
  83    0.00039332228840908
  84    -5.6905422761088e-06
  85    3.0722953416471e-05
  86    -3.123135573704e-05
  87    5.7155764681325e-05
  88    -5.8161236160122e-05
  89    8.245612492787e-05
  90    8.2582080969155e-06
  91    9.8653770890287e-07
  92    9.4501232794718e-06
  93    -1.465673002308e-05
  94    7.771116027614e-07
 Sym= A
 Ene=               6
 Spin= Alpha
 Occup=    1.00000
   1    -0.0024482509466927
   2    -0.0022704881525486
   3     0.018161594893621
   4    0.0073499334381418
   5     0.017586065165695
   6    -0.0056242824042044
   7     0.032750148578278
   8     0.025507440976093
   9    -0.019303513925359
  10    0.0048899641912528
  11     0.023517469488699
  12     0.029321320548474
  13    -0.016666087893741
  14    -0.0022092920476372
  15    -0.0012754716750188
  16    -0.023145527713103
  17    -0.069079758917355
  18     0.029647704515319
  19    0.0006738174893525
  20    -0.0051230196778827
  21     0.020330149300338
  22    0.0090368170358653
  23     0.012013385146483
  24    0.0010728033849984
  25    0.0011284167696033
  26    0.00063795221295419
  27    -0.00050702502987149
  28    0.00058969020163013
  29    -0.0076806389299715
  30     0.013833465020267
  31    -0.0023924033367814
  32    0.00071626775422567
  33    0.0017510404448597
  34    -0.0015298457137398
  35    -0.0005934961669149
  36     0.017647582083732
  37    -0.0033991397016584
  38    0.0048309302702488
  39    0.0042672270203203
  40    -0.0055187763164322
  41    0.0086097973199528
  42    0.0047014547688845
  43    -8.5697509668592e-05
  44    0.00019162097104853
  45    0.00013704662722736
  46    -0.00028156250366486
  47    0.00033516910226367
  48    0.00037482586320147
  49    0.0022581509519095
  50    0.0044987969384422
  51    -0.0035735241364617
  52    -0.0031860681001497
  53    0.0001796836668796
  54    -0.001040313513237
  55    -0.0059346953735955
  56    -0.0011240205603475
  57    6.2133230770727e-05
  58    0.00025128835218937
  59    7.4998765733754e-05
  60    -0.00048151723472334
  61    -0.00050737417041275
  62    -0.0011850969168609
  63    0.0048660067856732
  64     0.016365945731746
  65       0.4481564223729
  66      0.49149113798558
  67     0.058945385206751
  68      0.31087698151124
  69      0.34011238655103
  70     0.039021060003488
  71    -0.001990791854627
  72    -0.0082940682146359
  73    -0.0098657834613397
  74    0.0054027050394936
  75     0.002264256892069
  76     0.043252034365285
  77     0.048164787043133
  78    -0.002041841268134
  79    -0.0010732665575113
  80    0.0029179220280454
  81    0.0012313887288215
  82    -0.0035102495463634
  83    -0.022607672328686
  84    -0.0051692404794621
  85    0.0036959027720331
  86    -0.010625169349882
  87    -0.0086658939675848
  88     0.005479952452247
  89    -0.0097439488568275
  90    0.00030817126033608
  91    0.00034424962676953
  92    0.00059360218206914
  93    -0.00038151625879267
  94    -7.4450657815543e-05
 Sym= A
 Ene=               7
 Spin= Alpha
 Occup=    1.00000
   1    0.00044620522114056
   2     0.020302957638966
   3     0.077994141839717
   4     0.037819225896269
   5    0.0032984257662154
   6    -0.0016521347673852
   7     0.050257506452183
   8    -0.013963686511146
   9    0.0039120596483297
  10    1.0441649396538e-05
  11    -0.0016074551382702
  12    0.00073318027914871
  13    0.00047722058328361
  14    0.0021913384927281
  15    0.0032069575002317
  16    0.0042592832123474
  17    -0.039228151480005
  18     0.014520239221623
  19    0.0058027719538019
  20     0.011770421565925
  21     0.049457666170961
  22     0.023325081388745
  23     0.013844892876393
  24    -0.024939242420382
  25    -0.0093814393654761
  26     0.018306429588676
  27    0.0084981776764656
  28     0.026541726299591
  29    -0.039870260977258
  30    -0.046515654510294
  31    -0.0022613995519306
  32    -0.0030891227858921
  33    -0.00045454130672031
  34    -0.0010964614888346
  35    0.00069665762909806
  36     0.015632552018913
  37    -0.0045459530479156
  38    0.0046096820988279
  39    -0.0016600702746637
  40    -0.0089420292840575
  41    0.0045145511470938
  42    0.0010590568339172
  43    -0.00047852848732777
  44    -0.00013663813091045
  45    0.0004710165435476
  46    0.00024566109649694
  47    0.00045149937136261
  48    0.00092396207079872
  49    -0.011191104004659
  50    -0.023144023703229
  51      0.51646292368596
  52      0.04640184216309
  53      0.42312500644603
  54      0.35599208900345
  55       0.0347119345661
  56      0.29045811782701
  57     0.007731551888651
  58    0.0024777934117112
  59    -0.0068289498700029
  60    -0.002620189062321
  61    -0.009595688566066
  62    0.00030223340750602
  63    -0.0001489420100153
  64    -0.0042696644545907
  65    -0.0040987588994891
  66    -4.4004896222643e-05
  67    0.0030916513859897
  68    -0.008481074523685
  69     0.002952930413792
  70     0.003400026904591
  71    -0.00022158909465246
  72    -0.00050868240857643
  73    -0.00022444607318497
  74    0.00014346644438277
  75    -4.712450464258e-05
  76    -0.0080831364443966
  77    -0.010169749484312
  78    0.0022945154730313
  79    -0.00026640624249528
  80    -0.0011382927663967
  81    0.00098645187371089
  82    0.0080960039710275
  83    0.0082836057668268
  84     0.012194422034725
  85    0.00069846950205437
  86    -0.0031203877903775
  87    0.0007275578187463
  88    -0.0011040648399401
  89    0.0016058572817151
  90    0.00082042949618128
  91    0.00083759137957719
  92    -0.00032342022876531
  93    -0.0014342147779337
  94    -0.00091609464025669
 Sym= A
 Ene=               8
 Spin= Alpha
 Occup=    1.00000
   1    0.0012756669126674
   2     0.023148245461235
   3      0.06908540861635
   4     0.029650462040833
   5    -0.0050452687628144
   6    -0.0011193593876861
   7     0.020329819272129
   8    0.0081971960018353
   9     0.012600559664516
  10    -0.00039467403475239
  11    -0.00094020050187464
  12    -0.00092299043331834
  13    0.00089853081696466
  14    -0.00085870135806771
  15    0.0024485696707568
  16    0.0022724019285022
  17    -0.018159017742987
  18    0.0073525346222933
  19     -0.01129658335575
  20     0.014599139515718
  21     0.032752455835947
  22    -0.026859110969929
  23     0.017364314663204
  24    -0.027478392724032
  25    -0.005969382804974
  26    -0.019826158285857
  27    0.0036270846013406
  28     -0.02285680993715
  29    -0.043251050626939
  30     -0.04816438906995
  31    -0.0020417853945309
  32    0.0031089302097614
  33    -1.0512645479798e-05