[Molden Format]
made by pyscf v[2.0.1]
[Atoms] (AU)
C   1   6     0.00000000000000     0.00000000000000     0.00000000000000
C   2   6     2.85272299873892     0.00000000000000     0.00000000000000
H   3   1     3.62066923017674     0.00000000000000     1.90331545357504
F   4   9     3.65943188126013    -2.04308229183900    -1.24074875274501
F   5   9     3.65943188126013     2.04308229183900    -1.24074875274501
F   6   9    -0.80670888252121     2.04308229183900    -1.24074875274501
H   7   1    -0.76794623143782     0.00000000000000     1.90331545357504
F   8   9    -0.80670888252121    -2.04308229183900    -1.24074875274501
[GTO]
1 0
 s    8 1.00
                  6665  0.00069158396281299
                  1000  0.0053257961529341
                   228   0.027060721042034
                 64.71    0.10165684614077
                 21.06     0.2745748236174
                 7.495    0.44829431892377
                 2.797    0.28490261071525
                0.5215   0.015194859206082
 s    8 1.00
                  6665  -0.00029326965268655
                  1000  -0.0023180354739745
                   228  -0.011499786038565
                 64.71  -0.046826727009787
                 21.06   -0.12846616875047
                 7.495   -0.30126627246289
                 2.797   -0.25563070233011
                0.5215      1.093793361012
 s    1 1.00
                0.1596                   1
 p    3 1.00
                 9.439   0.056979251590039
                 2.002    0.31320721150073
                0.5456    0.76037674173753
 p    1 1.00
                0.1517                   1
 d    1 1.00
                  0.55                   1

2 0
 s    8 1.00
                  6665  0.00069158396281299
                  1000  0.0053257961529341
                   228   0.027060721042034
                 64.71    0.10165684614077
                 21.06     0.2745748236174
                 7.495    0.44829431892377
                 2.797    0.28490261071525
                0.5215   0.015194859206082
 s    8 1.00
                  6665  -0.00029326965268655
                  1000  -0.0023180354739745
                   228  -0.011499786038565
                 64.71  -0.046826727009787
                 21.06   -0.12846616875047
                 7.495   -0.30126627246289
                 2.797   -0.25563070233011
                0.5215      1.093793361012
 s    1 1.00
                0.1596                   1
 p    3 1.00
                 9.439   0.056979251590039
                 2.002    0.31320721150073
                0.5456    0.76037674173753
 p    1 1.00
                0.1517                   1
 d    1 1.00
                  0.55                   1

3 0
 s    3 1.00
                 13.01   0.033498726389998
                 1.962    0.23480080117413
                0.4446     0.8136829578829
 s    1 1.00
                 0.122                   1
 p    1 1.00
                 0.727                   1

4 0
 s    8 1.00
                 14710  0.00072067370873197
                  2207  0.0055504869689163
                 502.8   0.028254207662589
                 142.6    0.10639582836653
                 46.47    0.28668420124307
                  16.7    0.44843796582416
                 6.356    0.26464118141135
                 1.316   0.015326060993048
 s    8 1.00
                 14710  -0.00032119389049893
                  2207  -0.0025461915683188
                 502.8  -0.012643359507821
                 142.6   -0.05195749170489
                 46.47   -0.14344713812646
                  16.7   -0.33243762329603
                 6.356   -0.21865906750347
                 1.316     1.0955904138622
 s    1 1.00
                0.3897                   1
 p    3 1.00
                 22.67   0.064834021493887
                 4.977    0.34053535983101
                 1.347    0.73464640679382
 p    1 1.00
                0.3471                   1
 d    1 1.00
                  1.64                   1

5 0
 s    8 1.00
                 14710  0.00072067370873197
                  2207  0.0055504869689163
                 502.8   0.028254207662589
                 142.6    0.10639582836653
                 46.47    0.28668420124307
                  16.7    0.44843796582416
                 6.356    0.26464118141135
                 1.316   0.015326060993048
 s    8 1.00
                 14710  -0.00032119389049893
                  2207  -0.0025461915683188
                 502.8  -0.012643359507821
                 142.6   -0.05195749170489
                 46.47   -0.14344713812646
                  16.7   -0.33243762329603
                 6.356   -0.21865906750347
                 1.316     1.0955904138622
 s    1 1.00
                0.3897                   1
 p    3 1.00
                 22.67   0.064834021493887
                 4.977    0.34053535983101
                 1.347    0.73464640679382
 p    1 1.00
                0.3471                   1
 d    1 1.00
                  1.64                   1

6 0
 s    8 1.00
                 14710  0.00072067370873197
                  2207  0.0055504869689163
                 502.8   0.028254207662589
                 142.6    0.10639582836653
                 46.47    0.28668420124307
                  16.7    0.44843796582416
                 6.356    0.26464118141135
                 1.316   0.015326060993048
 s    8 1.00
                 14710  -0.00032119389049893
                  2207  -0.0025461915683188
                 502.8  -0.012643359507821
                 142.6   -0.05195749170489
                 46.47   -0.14344713812646
                  16.7   -0.33243762329603
                 6.356   -0.21865906750347
                 1.316     1.0955904138622
 s    1 1.00
                0.3897                   1
 p    3 1.00
                 22.67   0.064834021493887
                 4.977    0.34053535983101
                 1.347    0.73464640679382
 p    1 1.00
                0.3471                   1
 d    1 1.00
                  1.64                   1

7 0
 s    3 1.00
                 13.01   0.033498726389998
                 1.962    0.23480080117413
                0.4446     0.8136829578829
 s    1 1.00
                 0.122                   1
 p    1 1.00
                 0.727                   1

8 0
 s    8 1.00
                 14710  0.00072067370873197
                  2207  0.0055504869689163
                 502.8   0.028254207662589
                 142.6    0.10639582836653
                 46.47    0.28668420124307
                  16.7    0.44843796582416
                 6.356    0.26464118141135
                 1.316   0.015326060993048
 s    8 1.00
                 14710  -0.00032119389049893
                  2207  -0.0025461915683188
                 502.8  -0.012643359507821
                 142.6   -0.05195749170489
                 46.47   -0.14344713812646
                  16.7   -0.33243762329603
                 6.356   -0.21865906750347
                 1.316     1.0955904138622
 s    1 1.00
                0.3897                   1
 p    3 1.00
                 22.67   0.064834021493887
                 4.977    0.34053535983101
                 1.347    0.73464640679382
 p    1 1.00
                0.3471                   1
 d    1 1.00
                  1.64                   1

[5d]
[7f]
[9g]

[MO]
 Sym= A
 Ene=               0
 Spin= Alpha
 Occup=    1.00000
   1       1.0018670655586
   2    -0.00090591620731514
   3    -0.0093628752776823
   4    -0.00012141792063202
   5    6.5701040670474e-09
   6    -0.0028526697219941
   7    -0.0016101952992943
   8    -1.0700077342463e-09
   9    -0.0014450071153897
  10    -7.4747588903053e-05
  11    8.7501775661533e-05
  12    -2.0661619415196e-09
  13    -0.0002734011162007
  14    -4.108252422328e-10
  15    -0.0002201488088559
  16    -0.00085248986636074
  17    0.0029707364687453
  18    0.0010973062538683
  19    2.4479707011119e-10
  20    5.3535232414908e-05
  21    -0.00097419320134985
  22    5.7299871776518e-10
  23    8.5133233125889e-05
  24    8.6047930844348e-05
  25    -5.3973148645936e-05
  26     2.15286098139e-10
  27    -0.00020967686220236
  28    -1.6565716441283e-10
  29    0.00017346220669122
  30    0.00028744851263365
  31    -3.2551761325054e-05
  32    -5.3693410298732e-11
  33    -6.034624399395e-05
  34    -1.8414357189467e-05
  35    -1.3398688646199e-06
  36    -6.3436105703348e-05
  37    -0.00012712326249032
  38    2.2015774106201e-05
  39    2.9534049316541e-06
  40    -0.00028471926706338
  41    -8.2003485320072e-05
  42    -3.4323279156035e-05
  43    -1.0938144731277e-05
  44    -1.5828782021327e-06
  45    4.2804878809548e-06
  46    2.7263510548867e-05
  47    -1.7606638879894e-06
  48    -1.8412896907713e-05
  49    -1.3411479288725e-06
  50    -6.3437709093407e-05
  51    -0.00012712140118063
  52    -2.2014757296101e-05
  53    2.9561503829312e-06
  54    -0.00028471800825019
  55    8.2004012634455e-05
  56    -3.4321503921892e-05
  57    -1.093811178221e-05
  58    -1.5828688061536e-06
  59    -4.2805335704199e-06
  60    2.7263533847304e-05
  61    1.7606583557472e-06
  62    0.00012518231313419
  63    -0.00013313367929813
  64    -0.00062167304115423
  65    -0.00044967010094833
  66    0.0010635256249158
  67    -0.00055693631668881
  68    -0.00043345017861812
  69    0.0015663057092084
  70    -0.00068655524041651
  71    3.5089250204772e-05
  72    -6.2282068179394e-05
  73    0.00021452801442614
  74    0.00013996006054028
  75    0.00011746647735098
  76    -0.0031624367429257
  77    0.00077252188252344
  78    2.5266440473321e-05
  79    3.343594456285e-10
  80    0.00037095842937177
  81    0.00012519245067845
  82    -0.00013313449808619
  83    -0.00062167326120435
  84    -0.00044967896129049
  85    -0.0010635535079441
  86    -0.00055692230624856
  87    -0.00043345601218401
  88    -0.001566324598922
  89    -0.0006865451139197
  90    3.5089713917367e-05
  91    -6.2282138959912e-05
  92    -0.00021452826905023
  93    0.00013996049342597
  94    -0.00011746693611368
 Sym= A
 Ene=               1
 Spin= Alpha
 Occup=    1.00000
   1    -0.00022014989701258
   2    -0.00085248994138083
   3    0.0029707360927621
   4    -0.0010973062958226
   5    -2.4408526219784e-10
   6    5.3535038842459e-05
   7    0.0009741930952243
   8    -5.7106061810303e-10
   9    8.513325303307e-05
  10    8.6047910867856e-05
  11    5.3973219429121e-05
  12    -2.3370382132503e-10
  13    -0.00020967691273248
  14    -1.4861895659011e-10
  15       1.0018670655385
  16    -0.0009059161585344
  17    -0.0093628747034375
  18    0.00012141810343611
  19    -6.2546454302058e-09
  20    -0.0028526682883447
  21    0.0016101952588895
  22    9.6545884674908e-10
  23    -0.0014450069192407
  24    -7.4747425584243e-05
  25    -8.7501690050235e-05
  26    1.928005983328e-09
  27    -0.00027340097311456
  28    -4.0771845292818e-10
  29    -0.0031624353586603
  30    0.00077252246486021
  31    -2.5266484047403e-05
  32    -3.1316691134771e-10
  33    0.00037095836556713
  34    0.00012518114941206
  35    -0.00013313401996706
  36    -0.00062167346431373
  37    0.00044967064824888
  38    -0.0010635267916328
  39    -0.00055693681935028
  40    0.00043345054000939
  41    -0.001566306483022
  42    -0.0006865556158671
  43    3.5089274952146e-05
  44    6.2282081718208e-05
  45    -0.00021452804100101
  46    0.00013996008577681
  47    0.0001174665114289
  48    0.0001251902757284
  49    -0.00013313480282579
  50    -0.00062167362253102
  51    0.00044967872583342
  52      0.00106355282469
  53    -0.00055692429358493
  54    0.00043345583487177
  55    0.0015663241023048
  56    -0.00068654653719695
  57    3.5089698385264e-05
  58    6.2282152357312e-05
  59    0.00021452829063126
  60    0.00013996049299204
  61    -0.0001174669378796
  62    -1.8414166734699e-05
  63    -1.3397247247748e-06
  64    -6.3435876145364e-05
  65    0.00012712353106262
  66    -2.2015899049006e-05
  67    2.9534035595667e-06
  68    0.00028471946594716
  69    8.200337998988e-05
  70    -3.4323291525033e-05
  71    -1.0938150127663e-05
  72    1.5828792804076e-06
  73    -4.2804891075249e-06
  74    2.7263509225477e-05
  75    -1.7606717368417e-06
  76    0.00017346196160912
  77    0.00028744838781961
  78    3.255175890188e-05
  79    5.3277420304737e-11
  80    -6.0346244794566e-05
  81    -1.8412468303092e-05
  82    -1.3411784540814e-06
  83    -6.3437708539362e-05
  84    0.00012712157118765
  85    2.2014668231239e-05
  86    2.9566011926411e-06
  87    0.00028471812629569
  88    -8.2004070688539e-05
  89    -3.4321194214325e-05
  90    -1.0938106459979e-05
  91    1.5828735585491e-06
  92     4.28053848247e-06
  93    2.7263533584719e-05
  94    1.7606601527016e-06
 Sym= A
 Ene=               2
 Spin= Alpha
 Occup=    1.00000
   1    9.0948726145172e-05
   2    0.00012230366927443
   3    -0.0019877043363812
   4    -0.00012127746380204
   5    -1.3233639831171e-06
   6    -1.8054303174678e-05
   7    -0.00089411995473852
   8    -0.00031791192230708
   9    0.00056712550878052
  10    4.6592457004595e-06
  11    3.456339112267e-05
  12    -6.1710236358437e-05
  13    -6.7703999301926e-05
  14    -2.356076679161e-05
  15    -6.7146906570975e-05
  16    -4.4941830176591e-06
  17    0.0040941421847074
  18    0.00024771286968888
  19    0.0004412003141562
  20    -0.00025685321167907
  21    -0.00044221173010634
  22    0.0011084819412078
  23    -0.0011308032512334
  24    3.0593944568215e-06
  25    3.2851960067504e-05
  26    6.7487593052337e-05
  27    4.5566337644511e-05
  28    -4.197601366317e-05
  29    -0.00025053197620911
  30    -8.8693340832312e-05
  31    1.0333466227226e-05
  32    -0.00013250744772626
  33    0.00012802183506791
  34    0.00011259015914248
  35    0.00021038873281929
  36    -0.00079821788490054
  37    3.7131311476001e-06
  38    1.2275977084204e-05
  39    -4.7457838762223e-05
  40    7.1840555090402e-05
  41    -0.00040790235135449
  42    0.00011415795085674
  43    2.1390154604728e-05
  44    -1.1402105225899e-05
  45    -3.057294421361e-06
  46    2.2697046630794e-05
  47    1.364110888659e-05
  48       1.0010194001656
  49    -0.0039129328532267
  50    -0.011058173364653
  51    -0.0011073854550953
  52    -0.0023745213868749
  53    0.0014208844870226
  54    -2.836201350446e-05
  55    0.00018955259274094
  56    -6.2398183383308e-05
  57    1.3822027646587e-05
  58    5.0117919770845e-05
  59    0.00010050921505904
  60    8.9096506958125e-05
  61    -7.2364789580236e-05
  62    -7.0376556855108e-05
  63    -0.00013279048648559
  64    0.00044394639506147
  65    -8.9570653900063e-06
  66    4.1369031378954e-05
  67    -1.610782053735e-05
  68    7.3139108977521e-05
  69    -0.00011694863250392
  70    1.0041840296948e-05
  71    9.1861753144497e-06
  72    3.5278562676928e-07
  73    1.0362205047363e-05
  74    -1.370260655392e-05
  75    -6.4906867530527e-07
  76    8.272529548026e-05
  77    -0.00012769814425893
  78    4.3232627970137e-05
  79    4.8412741221107e-05
  80    -3.352456896811e-05
  81    -2.7437002951001e-05
  82    -4.5902858518103e-05
  83    0.00025320091870913
  84    1.1480794234666e-05
  85    2.1447211828832e-06
  86    1.763910246571e-05
  87    6.6140608850257e-05
  88    0.00011459836256378
  89    -3.4996500992845e-05
  90    -8.2144856989593e-06
  91    3.384018626092e-06
  92    -6.1708442910916e-06
  93    -1.7358662436885e-05
  94    2.8226640209997e-06
 Sym= A
 Ene=               3
 Spin= Alpha
 Occup=    1.00000
   1    -6.7161603093684e-05
   2    -4.5644580448182e-06
   3    0.0040941231643533
   4    -0.00024767613508334
   5    -0.0004411396854883
   6    -0.00025679493592494
   7    0.00044221406513513
   8    -0.0011084879892445
   9    -0.001130803982637
  10    3.0521060675692e-06
  11    -3.2854565112898e-05
  12    -6.7492049408416e-05
  13    4.556148017717e-05
  14    -4.1975704792325e-05
  15    9.0947043922637e-05
  16    0.00012230441987043
  17    -0.0019876880984329
  18    0.00012127306790902
  19    1.3315971925824e-06
  20    -1.8052638909125e-05
  21    0.00089411423501153
  22    0.00031791627276754
  23    0.0005671324731628
  24    4.6590675636932e-06
  25    -3.4567477021639e-05
  26    6.1710431534638e-05
  27    -6.7704776815669e-05
  28    -2.3564763745278e-05
  29    8.2721339303734e-05
  30    -0.00012770676339492
  31    -4.3232909359515e-05
  32    -4.8412529531985e-05
  33    -3.3525147623534e-05
  34    -7.0377201884125e-05
  35    -0.0001327913896151
  36    0.00044394906686566
  37    8.9653780165701e-06
  38    -4.1363436645778e-05
  39    -1.6109193760833e-05
  40    -7.3135356682843e-05
  41    0.00011694982238803
  42    1.0039437649146e-05
  43    9.1859086395168e-06
  44    -3.5265942609976e-07
  45    -1.0362401627521e-05
  46    -1.3702275670967e-05
  47    -6.4865381866517e-07
  48    -2.7436520323422e-05
  49    -4.5907726445006e-05
  50    0.00025319434581351
  51    -1.1485531813881e-05
  52    -2.1465448174045e-06
  53    1.7643311337712e-05
  54    -6.6143368681521e-05
  55    -0.00011459955523999
  56    -3.4994529911832e-05
  57    -8.2145149317599e-06
  58    -3.384350546595e-06
  59    6.1706479734364e-06
  60    -1.7358544595018e-05
  61    2.8229371100958e-06
  62    0.00011259016302949
  63    0.00021038961413661
  64    -0.00079820996943026
  65    -3.7120625688277e-06
  66    -1.2271713477664e-05
  67    -4.7452333951988e-05
  68    -7.1840047699757e-05
  69    0.00040790086339038
  70    0.00011416222856948
  71    2.1391168167872e-05
  72    1.1402442300576e-05
  73    3.0575401056846e-06
  74    2.2698561365483e-05
  75    1.3641354264963e-05
  76    -0.00025053607864785
  77    -8.8677994882298e-05
  78    -1.0330638878695e-05
  79    0.00013251055131531
  80    0.00012802274513195
  81       1.0010194094888
  82    -0.0039123933886615
  83    -0.011057544908075
  84    0.0011072994999073
  85    0.0023741744156253
  86    0.0014208496651895
  87    2.8303706399583e-05
  88    -0.00018978799640408
  89    -6.2418588486945e-05
  90    1.3825497639466e-05
  91    -5.011879912705e-05
  92    -0.00010051360008797
  93    8.9101970366879e-05
  94    -7.2368536209339e-05
 Sym= A
 Ene=               4
 Spin= Alpha
 Occup=    1.00000
   1    9.0961891553431e-05
   2    0.00012230943139496
   3    -0.0019878720141249
   4    -0.00012132529108231
   5    1.2677937996933e-06
   6    -1.8070727165741e-05
   7    -0.00089418730699554
   8    0.00031787284192548
   9    0.00056706603428024
  10    4.6600912417462e-06
  11    3.4530688271011e-05
  12    6.1708768768488e-05
  13    -6.769797583977e-05
  14    2.3528716768219e-05
  15    -6.7031631748615e-05
  16    -3.9058805397319e-06
  17    0.0040943296297824
  18    0.00024799778048951
  19    -0.00044170406553445
  20    -0.00025732504517727
  21    -0.00044221946219905
  22    -0.0011084182846989
  23    -0.0011307948712069
  24    3.1289585151792e-06
  25    3.2839053063008e-05
  26    -6.744634760741e-05
  27    4.5606372725804e-05
  28     4.19915946518e-05
  29    -0.00025047394262173
  30    -8.8805825653603e-05
  31    1.0357799128201e-05
  32    0.00013247981332592
  33    0.00012801464148382
  34       1.0010193192634
  35    -0.0039176374180235
  36    -0.011063641453306
  37    -0.0011083492682301
  38    0.0023774593324559
  39    0.0014210463237651
  40    -2.9018673208054e-05
  41    -0.00018755494023177
  42    -6.2315715355244e-05
  43    1.3790462867643e-05
  44    5.0109147981804e-05
  45    -0.00010047519472627
  46    8.9052623109817e-05
  47    7.2329451187732e-05
  48    0.00011259278153246
  49    0.00021037841978402
  50    -0.00079829427553894
  51    3.7155830865461e-06
  52    -1.2276832004606e-05
  53    -4.7484131823116e-05
  54    7.1843706012555e-05
  55    0.00040793854951351
  56    0.00011413434983006
  57    2.1382563056361e-05
  58    -1.1399485149998e-05
  59    3.0556216298759e-06
  60    2.2685322562001e-05
  61    -1.3639050913792e-05
  62    -2.7435440074702e-05
  63    -4.5900530845618e-05
  64    0.00025321066390307
  65    1.1474486144945e-05
  66    -2.1396574030118e-06
  67    1.7638986864188e-05
  68    6.6140700966356e-05
  69    -0.0001145944517238
  70    -3.4988413722825e-05
  71    -8.2139270817413e-06
  72    3.3818853465945e-06
  73     6.17151403986e-06
  74    -1.7359846832345e-05
  75    -2.8209273583973e-06
  76    8.2765776147557e-05
  77    -0.00012762395466233
  78    4.3230081138485e-05
  79    -4.8413829559357e-05
  80    -3.3521053417111e-05
  81    -7.0371229832856e-05
  82    -0.00013278548959611
  83    0.00044392240496497
  84    -8.9140298580442e-06
  85    -4.1397521954545e-05
  86    -1.6106811816608e-05
  87    7.3154310308792e-05
  88    0.00011695133527031
  89    1.0053569650033e-05
  90    9.1878313337397e-06
  91    3.5315708849749e-07
  92    -1.036056875658e-05
  93    -1.3705456778294e-05
  94    6.5213212647395e-07
 Sym= A
 Ene=               5
 Spin= Alpha
 Occup=    1.00000
   1    -6.704009601608e-05
   2    -3.9410971201108e-06
   3    0.0040943181410151
   4    -0.00024797980440073
   5    0.00044166916466922
   6    -0.00025729741948131
   7    0.0004422199285699
   8    0.0011084190762544
   9    -0.0011307979928711
  10    3.1266864588433e-06
  11    -3.2839316728295e-05
  12    6.744687939488e-05
  13    4.5604080102098e-05
  14    4.1991147168317e-05
  15    9.0960959722263e-05
  16    0.00012230963781644
  17    -0.0019878623731239
  18    0.00012132294144506
  19    -1.2716991362934e-06
  20    -1.8069812113324e-05
  21    0.00089418352941463
  22    -0.00031787487550633
  23    0.00056706987646907
  24    4.6599736741067e-06
  25    -3.4532837991065e-05
  26    -6.1708930442733e-05
  27    -6.7698229950699e-05
  28    2.3531004469685e-05
  29    8.2763659537637e-05
  30    -0.00012762832206889
  31    -4.3230326223671e-05
  32    4.8413701221835e-05
  33    -3.3521368144512e-05
  34    -2.7435508577731e-05
  35    -4.5902502477714e-05
  36    0.00025320760799766
  37    -1.1475704303269e-05
  38    2.1406058937265e-06
  39    1.7639967791975e-05
  40    -6.6140930846112e-05
  41    0.00011459508366121
  42    -3.4988209099606e-05
  43    -8.2139490503941e-06
  44    -3.3820349322969e-06
  45    -6.1714343750367e-06
  46    -1.7359793321157e-05
  47    -2.8210402966848e-06
  48    -7.0371660346095e-05
  49    -0.00013278674637648
  50    0.00044392295673332
  51    8.9171441362114e-06
  52    4.1394471035309e-05
  53    -1.6106148044296e-05
  54    -7.3153343638656e-05
  55    -0.0001169519605358
  56    1.0053017162157e-05
  57    9.1876886086641e-06
  58    -3.530764698724e-07
  59    1.0360645186404e-05
  60    -1.3705249652889e-05
  61    6.5194276843828e-07
  62       1.0010193247994
  63    -0.0039173044935107
  64    -0.011063254672194
  65    0.0011082968966829
  66    -0.0023772858877831
  67    0.0014209884206755
  68    2.8982974438483e-05
  69    0.00018767286750787
  70    -6.2353788968726e-05
  71    1.3791633099808e-05
  72    -5.0109934123461e-05
  73    0.00010047788842241
  74    8.9055105419096e-05
  75    7.2331327088178e-05
  76    -0.00025047385429254
  77    -8.8794562223158e-05
  78    -1.0356282241992e-05
  79    -0.000132481412209
  80    0.00012801495205171
  81    0.00011259292774487
  82    0.00021037960263854
  83    -0.00079829128722666
  84    -3.7143324312411e-06
  85    1.227573244781e-05
  86    -4.7481288804822e-05
  87    -7.1843131290261e-05
  88    -0.00040793758947831
  89    0.0001141364446983
  90    2.1383080478036e-05
  91    1.1399733260451e-05
  92    -3.0556841528353e-06
  93    2.2686007863366e-05
  94    -1.3639100118684e-05
 Sym= A
 Ene=               6
 Spin= Alpha
 Occup=    1.00000
   1    0.0011254577203825
   2     0.020803825268249
   3     0.067002147803174
   4     0.035504707469847
   5    0.0017055233368774
   6    -0.0027660418287368
   7     0.037637765891124
   8     -0.01401345701164
   9    0.0065960471812007
  10    -8.3265931760185e-05
  11    -0.0015483373651766
  12    0.00051435629362817
  13    0.00054865990789018
  14    0.0018286502958498
  15    0.0024136110153735
  16    0.0026088613353814
  17    -0.025879568710873
  18     0.011636633761332
  19    0.0079857575871109
  20     0.014122375646518
  21     0.041213520145891
  22     0.028909968802448
  23     0.016714836257597
  24     -0.02648982652207
  25    -0.0080219765552729
  26     0.019227208017772
  27    0.0062306464567828
  28     0.025278853582575
  29    -0.042072763065196
  30    -0.047800537863443
  31    -0.0022583151640876
  32    -0.0033063212327466
  33    -0.00051443957964413
  34    -0.0011749154131681
  35    0.0021754792285093
  36     0.019852211378412
  37    -0.0052556555374173
  38    0.0078785676301413
  39    -0.00098044980137509
  40    -0.0086523246610194
  41     0.007679814999312
  42    0.0017820235157907
  43    -0.00046988953470466
  44    -9.5982834059914e-05
  45    0.00051459780498956
  46    0.00022503810588664
  47    0.0004002525286255
  48    0.00090089406723288
  49    -0.010820337931271
  50    -0.023784961970536
  51      0.48444157547104
  52     0.079473399038772
  53      0.45451141795054
  54      0.33421445831369
  55     0.057596011970537
  56      0.31187836001977
  57    0.0084831850055001
  58    0.0019127942756399
  59    -0.0069169679013392
  60    -0.0018158924236462
  61    -0.0091984440326008
  62    0.00076206841874834
  63    0.0068796749799672
  64    0.0079888804836433
  65     0.010613412096623
  66    0.00046255226296653
  67    -0.0039842761880184
  68      0.00132416990869
  69    -0.0010893138657292
  70    0.00061661286784313
  71    0.00052555529507928
  72    0.00092927394381379
  73    -0.00021587172252129
  74    -0.0013717826183686
  75    -0.00074604305173952
  76    -0.0075805866439408
  77    -0.012726726124353
  78    0.00042734345827721
  79    0.0011012451994461
  80    0.0010279966465702
  81    -0.00029687160759295
  82    -0.0020871659557849
  83    -0.0051230610040506
  84    -0.005530674901161
  85    -0.0015065808511099
  86    -0.0018260872385827
  87    -0.004569487513472
  88    -0.0014114556049558
  89    -0.0039213766450486
  90    -0.00033152821262205
  91    0.00033300970129608
  92    -0.00015202140766939
  93    0.00039816202444013
  94    0.00054099534565697
 Sym= A
 Ene=               7
 Spin= Alpha
 Occup=    1.00000
   1    0.0011250615166402
   2     0.020799793992541
   3     0.066994253887054
   4     0.035498437023251
   5    -0.0017057266918239
   6    -0.002765702419413
   7      0.03763154543184
   8     0.014012253034408
   9    0.0065943042967076
  10    -8.3411096282567e-05
  11    -0.0015478460056015
  12    -0.00051436415075215
  13    0.00054855956046469
  14    -0.0018285493692005
  15    0.0024131761710758
  16    0.0026063359912364
  17     -0.02587883636826
  18     0.011631585453968
  19    -0.007994496300822
  20     0.014127601352724
  21     0.041206709150964
  22    -0.028918851800515
  23     0.016721466238306
  24    -0.026494253872405
  25    -0.0080178922864897
  26    -0.019229772141438
  27    0.0062236089183586
  28    -0.025275085025631
  29    -0.042075697754879
  30    -0.047803112011749
  31    -0.0022583970197502
  32    0.0033064470092207
  33    -0.00051454629101045
  34    0.00090187574382329
  35    -0.010825040801279
  36    -0.023789900386921
  37      0.48434162105436
  38     -0.07956415196563
  39       0.4546006211958
  40      0.33414548900242
  41    -0.057658150536641
  42      0.31194013506816
  43    0.0084849526389407
  44    0.0019108631563041
  45    0.0069175136468379
  46    -0.0018135398184394
  47    0.0091973389379277
  48    -0.0011753544384381
  49    0.0021792007460656
  50     0.019864484326732
  51    -0.0052563751148476
  52    -0.0078880399560807
  53    -0.0009783932938002
  54    -0.0086530370051748
  55    -0.007688944007064
  56    0.0017837995490913
  57    -0.0004699521485559
  58    -9.5814483441318e-05
  59    -0.00051467655565521
  60    0.00022507312188794
  61    -0.00040015329182861
  62    -0.00029698618528846
  63    -0.0020867804801782
  64    -0.0051213472942059
  65    -0.0055290419502216
  66    0.0015057996921642
  67    -0.0018254550744687
  68    -0.0045668543651898
  69    0.0014109854994562
  70    -0.0039204839171993
  71    -0.00033150534193006
  72    0.00033297588652954
  73    0.00015197161155475
  74    0.00039811979826745
  75    -0.00054095002161192
  76    -0.0075798337661537
  77    -0.012725684187778
  78    0.0004267891458827
  79    -0.0011011157202627
  80    0.0010279107313887
  81    0.00076196373474367
  82    0.0068781988862574
  83    0.0079864254094612
  84     0.010610914760002
  85    -0.00046176449302636
  86    -0.0039853988537834
  87    0.0013231276420875
  88    0.0010888144119051
  89    0.00061593112366258
  90    0.00052542708609762
  91    0.00092926609856988
  92    0.00021580511620019
  93    -0.0013715077783955
  94    0.00074579637355288
 Sym= A
 Ene=               8
 Spin= Alpha
 Occup=    1.00000
   1    0.0024136292225195
   2     0.002608980915982
   3    -0.025879597906424
   4    -0.011636858343575
   5    -0.0079853612905987
   6     0.014122144077151
   7    -0.041213827262984
   8    -0.028909566200553
   9     0.016714536495877
  10    -0.026489625830236
  11    0.0080221614650261
  12    -0.019227091208135
  13    0.0062309657544242
  14      0.02527902480004
  15    0.0011254757043475
  16     0.020804010130829
  17     0.067002506276213
  18    -0.035504996964475
  19    -0.0017055127683451
  20    -0.002766061990145
  21    -0.037638049079514
  22     0.014013512417664
  23    0.0065961253373034
  24    -8.3259755655772e-05
  25    0.0015483588589097
  26    -0.0005143556707159
  27    0.00054866515145736
  28    0.0018286543296618
  29    -0.0075806257995119
  30    -0.012726776046262
  31    -0.0004273685399774
  32    -0.0011012510294469
  33    0.0010280007518266