[Molden Format]
made by pyscf v[2.0.1]
[Atoms] (AU)
C   1   6     0.00000000000000     0.00000000000000     0.00000000000000
C   2   6     2.85272299873892     0.00000000000000     0.00000000000000
H   3   1     3.62066923017674     0.00000000000000     1.90331545357504
F   4   9     3.65943188126013    -2.04308229183900    -1.24074875274501
F   5   9     3.65943188126013     2.04308229183900    -1.24074875274501
F   6   9    -0.80670888252121    -1.86469774548472    -1.49550828705448
H   7   1    -0.76794623143782     1.78853148675225    -0.65097222422570
F   8   9    -0.80670888252121    -0.46714714892290     2.34423041954446
[GTO]
1 0
 s    8 1.00
                  6665  0.00069158396281299
                  1000  0.0053257961529341
                   228   0.027060721042034
                 64.71    0.10165684614077
                 21.06     0.2745748236174
                 7.495    0.44829431892377
                 2.797    0.28490261071525
                0.5215   0.015194859206082
 s    8 1.00
                  6665  -0.00029326965268655
                  1000  -0.0023180354739745
                   228  -0.011499786038565
                 64.71  -0.046826727009787
                 21.06   -0.12846616875047
                 7.495   -0.30126627246289
                 2.797   -0.25563070233011
                0.5215      1.093793361012
 s    1 1.00
                0.1596                   1
 p    3 1.00
                 9.439   0.056979251590039
                 2.002    0.31320721150073
                0.5456    0.76037674173753
 p    1 1.00
                0.1517                   1
 d    1 1.00
                  0.55                   1

2 0
 s    8 1.00
                  6665  0.00069158396281299
                  1000  0.0053257961529341
                   228   0.027060721042034
                 64.71    0.10165684614077
                 21.06     0.2745748236174
                 7.495    0.44829431892377
                 2.797    0.28490261071525
                0.5215   0.015194859206082
 s    8 1.00
                  6665  -0.00029326965268655
                  1000  -0.0023180354739745
                   228  -0.011499786038565
                 64.71  -0.046826727009787
                 21.06   -0.12846616875047
                 7.495   -0.30126627246289
                 2.797   -0.25563070233011
                0.5215      1.093793361012
 s    1 1.00
                0.1596                   1
 p    3 1.00
                 9.439   0.056979251590039
                 2.002    0.31320721150073
                0.5456    0.76037674173753
 p    1 1.00
                0.1517                   1
 d    1 1.00
                  0.55                   1

3 0
 s    3 1.00
                 13.01   0.033498726389998
                 1.962    0.23480080117413
                0.4446     0.8136829578829
 s    1 1.00
                 0.122                   1
 p    1 1.00
                 0.727                   1

4 0
 s    8 1.00
                 14710  0.00072067370873197
                  2207  0.0055504869689163
                 502.8   0.028254207662589
                 142.6    0.10639582836653
                 46.47    0.28668420124307
                  16.7    0.44843796582416
                 6.356    0.26464118141135
                 1.316   0.015326060993048
 s    8 1.00
                 14710  -0.00032119389049893
                  2207  -0.0025461915683188
                 502.8  -0.012643359507821
                 142.6   -0.05195749170489
                 46.47   -0.14344713812646
                  16.7   -0.33243762329603
                 6.356   -0.21865906750347
                 1.316     1.0955904138622
 s    1 1.00
                0.3897                   1
 p    3 1.00
                 22.67   0.064834021493887
                 4.977    0.34053535983101
                 1.347    0.73464640679382
 p    1 1.00
                0.3471                   1
 d    1 1.00
                  1.64                   1

5 0
 s    8 1.00
                 14710  0.00072067370873197
                  2207  0.0055504869689163
                 502.8   0.028254207662589
                 142.6    0.10639582836653
                 46.47    0.28668420124307
                  16.7    0.44843796582416
                 6.356    0.26464118141135
                 1.316   0.015326060993048
 s    8 1.00
                 14710  -0.00032119389049893
                  2207  -0.0025461915683188
                 502.8  -0.012643359507821
                 142.6   -0.05195749170489
                 46.47   -0.14344713812646
                  16.7   -0.33243762329603
                 6.356   -0.21865906750347
                 1.316     1.0955904138622
 s    1 1.00
                0.3897                   1
 p    3 1.00
                 22.67   0.064834021493887
                 4.977    0.34053535983101
                 1.347    0.73464640679382
 p    1 1.00
                0.3471                   1
 d    1 1.00
                  1.64                   1

6 0
 s    8 1.00
                 14710  0.00072067370873197
                  2207  0.0055504869689163
                 502.8   0.028254207662589
                 142.6    0.10639582836653
                 46.47    0.28668420124307
                  16.7    0.44843796582416
                 6.356    0.26464118141135
                 1.316   0.015326060993048
 s    8 1.00
                 14710  -0.00032119389049893
                  2207  -0.0025461915683188
                 502.8  -0.012643359507821
                 142.6   -0.05195749170489
                 46.47   -0.14344713812646
                  16.7   -0.33243762329603
                 6.356   -0.21865906750347
                 1.316     1.0955904138622
 s    1 1.00
                0.3897                   1
 p    3 1.00
                 22.67   0.064834021493887
                 4.977    0.34053535983101
                 1.347    0.73464640679382
 p    1 1.00
                0.3471                   1
 d    1 1.00
                  1.64                   1

7 0
 s    3 1.00
                 13.01   0.033498726389998
                 1.962    0.23480080117413
                0.4446     0.8136829578829
 s    1 1.00
                 0.122                   1
 p    1 1.00
                 0.727                   1

8 0
 s    8 1.00
                 14710  0.00072067370873197
                  2207  0.0055504869689163
                 502.8   0.028254207662589
                 142.6    0.10639582836653
                 46.47    0.28668420124307
                  16.7    0.44843796582416
                 6.356    0.26464118141135
                 1.316   0.015326060993048
 s    8 1.00
                 14710  -0.00032119389049893
                  2207  -0.0025461915683188
                 502.8  -0.012643359507821
                 142.6   -0.05195749170489
                 46.47   -0.14344713812646
                  16.7   -0.33243762329603
                 6.356   -0.21865906750347
                 1.316     1.0955904138622
 s    1 1.00
                0.3897                   1
 p    3 1.00
                 22.67   0.064834021493887
                 4.977    0.34053535983101
                 1.347    0.73464640679382
 p    1 1.00
                0.3471                   1
 d    1 1.00
                  1.64                   1

[5d]
[7f]
[9g]

[MO]
 Sym= A
 Ene=               0
 Spin= Alpha
 Occup=    1.00000
   1    -0.00021217425647345
   2    -0.00087756190760156
   3    0.0028604881370894
   4    -0.0010844197320459
   5    6.0915286057941e-05
   6    -8.5709109708973e-05
   7    0.0013089900045279
   8    -0.00029808766664297
   9    0.0002697936933013
  10    0.00012441989030417
  11    1.8512000309933e-05
  12    6.9179817722164e-06
  13    -0.00017876459653491
  14    2.512188030581e-05
  15       1.0018737596066
  16    -0.00092960969265302
  17    -0.0097191852918317
  18    0.00015382654266212
  19    5.5925488784612e-05
  20    -0.0030436508096329
  21    0.0016896175189192
  22    6.5305613753412e-05
  23    -0.0015351203003454
  24    -9.4045365937123e-05
  25    -0.00010612756601761
  26    -1.3599330343593e-05
  27    -0.00030323534483876
  28    -4.9656629249317e-06
  29    -0.0030915188687968
  30    0.00086389631169626
  31    -5.5098588169347e-05
  32    -1.3735824470697e-05
  33    0.00033270681541914
  34    0.00012680875073387
  35    -0.00012811255393898
  36    -0.00061422743675228
  37    0.00044637668581095
  38    -0.0010619176364786
  39    -0.00055413620626373
  40    0.00044345239452399
  41    -0.0015739427275912
  42    -0.00066470514249732
  43    3.8745292813581e-05
  44    6.4591249061709e-05
  45    -0.00021590220739201
  46    0.00014207130507839
  47    0.00011767176356564
  48    0.00014103856510089
  49    -9.8389711847448e-05
  50    -0.0007021295217055
  51    0.00044496057243939
  52     0.001060824123575
  53    -0.00054553801595786
  54    0.00042870754037479
  55    0.0015820575101477
  56    -0.00069030266110898
  57    3.6937389281859e-05
  58    6.6328064263717e-05
  59    0.00022176428577344
  60    0.00014519908333945
  61    -0.00012157763865855
  62    -1.3733780776625e-05
  63    1.2829442283331e-05
  64    -6.3888269439061e-05
  65    0.00012146685323878
  66     4.61263363455e-06
  67    5.3929306815593e-05
  68    0.00022017188163522
  69    -3.612321560614e-05
  70    -3.9458620360164e-05
  71    -1.7368736869503e-05
  72    8.9629437989737e-07
  73    2.1898071762934e-06
  74    2.3267998414048e-05
  75    2.6164863157211e-06
  76    6.6251950784086e-05
  77    0.00057152954450821
  78    7.4024181757463e-05
  79    -4.3602270701059e-05
  80    1.2234738015856e-05
  81    1.8546007965793e-05
  82    0.00015147640333847
  83    -5.1350039707868e-05
  84    0.00031286292323716
  85    2.2379750040334e-05
  86    -8.2793802566687e-05
  87    0.00031367993977167
  88    2.6782668425157e-05
  89    -1.1211219527873e-05
  90    5.8611793381595e-06
  91    1.4285824942606e-06
  92    -1.0102265393972e-05
  93    1.3755888884655e-05
  94    -1.0284750561903e-06
 Sym= A
 Ene=               1
 Spin= Alpha
 Occup=    1.00000
   1       1.0018737596833
   2    -0.00092961102547542
   3    -0.009719195822044
   4    -0.00015386577118179
   5    -0.002840970449232
   6    0.0010935478875855
   7    -0.0016896287234431
   8    -0.0014202041167698
   9    0.00058640735303064
  10    0.00026998437473327
  11    -3.1632703606965e-05
  12    0.00013939210464073
  13    -9.3067013672367e-05
  14    0.0001014267118253
  15    -0.00021217478533875
  16    -0.00087758075135755
  17    0.0028604777418941
  18    0.0010844497377355
  19    -5.9707880109347e-05
  20    8.6555404099587e-05
  21    -0.0013089817314213
  22    0.00015156966362911
  23    -0.00037238477656376
  24    9.2476479099007e-05
  25    -1.7275973424495e-05
  26    -6.5073135087756e-06
  27    -0.00019721001576032
  28    -2.5987461616215e-05
  29    6.6252982565573e-05
  30    0.00057153286141433
  31    -7.4023457903916e-05
  32    -3.4159748160151e-06
  33    -4.5157154024105e-05
  34    -1.3733708308479e-05
  35    1.2830479622499e-05
  36    -6.3886413942187e-05
  37    -0.00012147301186221
  38    5.2256758523307e-05
  39    -1.4108656794405e-05
  40    -0.00022017811498218
  41    -4.9432340052072e-05
  42    -2.0448105660099e-05
  43    -1.3375681220105e-05
  44    -2.1520082853619e-06
  45    3.8680286275873e-06
  46    2.5573191113028e-05
  47    -1.736922988926e-06
  48    1.854596526889e-05
  49    0.00015147772115376
  50    -5.134662370912e-05
  51    -0.00031286167471361
  52    -7.0149295307121e-05
  53    4.9345914147778e-05
  54    -0.00031368094335796
  55    -1.3771062783345e-06
  56    2.9001082513505e-05
  57    -6.7978563537079e-06
  58    1.4553175157819e-06
  59    -1.5422557377529e-05
  60    6.4469582275009e-06
  61    -9.9102723379365e-07
  62    0.00012680851227156
  63    -0.0001281102471316
  64    -0.00061422446759512
  65    -0.00044637560323098
  66    -0.00088390135500052
  67    -0.00080834842462992
  68     -0.00044344945944
  69    -0.0011629300006223
  70    -0.0012516787746126
  71    -1.0324375756048e-06
  72    -8.8483925684302e-05
  73    -0.00023261935831235
  74    0.00011910505709469
  75    -0.00010094218003631
  76    -0.0030915097805434
  77    0.00086390081711536
  78    5.5098116976456e-05
  79    0.00030794329608453
  80    -0.00012669930444595
  81    0.0001410382536841
  82    -9.8383446697496e-05
  83    -0.00070212235764711
  84    -0.00044495900053201
  85    -0.00014981815504453
  86    0.0011834086169057
  87    -0.00042870471453875
  88    -0.00010757948214629
  89    0.0017227289216827
  90    -0.00024647251700773
  91    0.00013693112538586
  92    0.00010265303742959
  93    -1.8428476132597e-05
  94    -2.074607096035e-05
 Sym= A
 Ene=               2
 Spin= Alpha
 Occup=    1.00000
   1    9.8976211732035e-05
   2    0.00015315841927741
   3    -0.0017840759334438
   4    -0.00014391406438179
   5    5.0949182106799e-05
   6    -3.0156068222806e-05
   7    -0.00081832058194585
   8    -0.00018095666061321
   9    0.00024276838267529
  10    -1.3034725129414e-05
  11    3.0769556361826e-05
  12    -7.6227184857755e-05
  13    -9.7894035050092e-05
  14    -4.2274097822814e-05
  15    -4.9120947581384e-05
  16    3.2684946261452e-05
  17    0.0039167766666834
  18    0.00024352769745477
  19    0.00045071144348695
  20    -0.00026307530975616
  21    -0.00034643205595488
  22    0.0010652280664658
  23    -0.0010107004126355
  24    -4.1749881441384e-07
  25    1.4402149474945e-05
  26    6.2853805396962e-05
  27    3.4676327402828e-05
  28    -3.8398349894399e-05
  29    -0.00023892678745715
  30    -0.0001528225340767
  31    4.5733345922763e-06
  32    -0.00012937414780248
  33    0.00012559234069718
  34    0.00010725979276324
  35    0.00020038887488164
  36    -0.0007636608660046
  37    6.2109127746629e-06
  38    1.2842471979476e-05
  39    -4.7994689298995e-05
  40    6.0143172366836e-05
  41    -0.0003973990301008
  42    0.00010889143342773
  43    2.0835755418954e-05
  44    -1.2104089746435e-05
  45    -4.7385365946001e-06
  46    2.1889740515903e-05
  47    1.3177743044663e-05
  48       1.0010161626087
  49    -0.0040435258412523
  50    -0.011173339626815
  51    -0.0011336536907835
  52    -0.0024052518534093
  53    0.0014726191427652
  54     -1.5871783099e-05
  55    0.00012210099857012
  56    -1.9104916457847e-07
  57    1.6800267309896e-05
  58    4.5118082171324e-05
  59    0.00010020321721021
  60    8.6744741797655e-05
  61    -6.684921869414e-05
  62    -9.3875876399179e-06
  63    -1.1507218036434e-05
  64    0.00016589772758759
  65    2.0338119611334e-05
  66    6.7465648923118e-06
  67    5.9441424982275e-06
  68    2.7098964344517e-05
  69    5.5584248578433e-05
  70    2.9874444740673e-05
  71    -4.4556219550921e-06
  72    4.2119023762089e-06
  73    1.4032862290315e-06
  74    -1.7212325582978e-05
  75    -9.3058180335828e-07
  76    7.267823879121e-05
  77    -1.1138739645293e-05
  78    -4.0722901463946e-05
  79    1.028573994643e-05
  80    -1.4078676007321e-05
  81    -2.0348303749949e-05
  82    -3.1616588457013e-05
  83    0.00015311259882033
  84    -1.0555890129025e-05
  85    3.5132763984405e-06
  86    -1.0618179332631e-05
  87    0.00013998091072771
  88    1.3266338224303e-05
  89    -5.0399452534778e-05
  90    2.6366040647678e-06
  91    -1.1969710575342e-06
  92    -1.3664024338277e-05
  93    -3.4519836737323e-06
  94    6.2829378405991e-07
 Sym= A
 Ene=               3
 Spin= Alpha
 Occup=    1.00000
   1    -4.9113831366054e-05
   2    3.2726527180029e-05
   3    0.0039168092925774
   4    -0.00024354038006378
   5    -9.3080105213015e-05
   6    0.0005135656782834
   7    0.00034646348831239
   8    -0.0005854244050036
   9    0.0013466531026079
  10    -6.1366259925029e-05
  11    4.102752938699e-05
  12    3.721917713127e-05
  13    -5.2698933022483e-07
  14    -4.0116282642823e-07
  15    9.8975244700833e-05
  16    0.00015313944039623
  17    -0.0017841320576739
  18    0.00014393904368963
  19    -1.0913237774697e-05
  20    5.8190735727451e-05
  21    0.00081834978463481
  22    0.00016622750394905
  23    -0.00025305433931242
  24    0.00012152619672113
  25    5.0246268887305e-05
  26    -1.9675381707209e-05
  27    -2.0206449521621e-05
  28    -1.4454728808324e-05
  29    7.2670639808032e-05
  30    -1.1146557454436e-05
  31    4.0721770119311e-05
  32    -9.7118886657124e-06
  33    1.4482470122047e-05
  34    -9.3875264298518e-06
  35    -1.1505135913376e-05
  36    0.00016590443455086
  37    -2.0341511285896e-05
  38    7.8973720244096e-06
  39    4.3062731774165e-06
  40    -2.7102921050655e-05
  41    4.7090048837326e-05
  42    4.2012110497718e-05
  43    1.3827503043153e-05
  44    2.3151899185889e-06
  45    9.087175886412e-06
  46    -6.6569990662599e-06
  47    -3.6391552623226e-06
  48    -2.0349337612808e-05
  49    -3.1615340348626e-05
  50    0.00015312958314731
  51    1.0550304190442e-05
  52    -8.7808603682871e-06
  53    6.9366124410351e-06
  54    -0.00013998785396884
  55    -4.2829780512235e-05
  56    2.9706625706404e-05
  57    9.3905436876661e-06
  58    -9.996211919877e-07
  59    -1.0825553863925e-05
  60    4.470679930577e-07
  61    9.0950503442914e-07
  62    0.00010726027845873
  63    0.00020038745712767
  64    -0.00076367090199159
  65    -6.2123613890917e-06
  66    -4.0710155978848e-05
  67    2.8477784101233e-05
  68    -6.0147220681317e-05
  69    -3.3597577346428e-05
  70    -0.00041068109556707
  71    -2.0862692240464e-05
  72    -1.652238132144e-05
  73    -2.2263558709434e-05
  74    -2.185544392548e-06
  75    6.8667755930204e-06
  76    -0.00023890226378396
  77    -0.00015280630021676
  78    -4.5765401933531e-06
  79    7.3770680918363e-05
  80    -0.00016452293611738
  81        1.001016154003
  82    -0.004043973932592
  83    -0.011173851644082
  84    0.0011340918645827
  85    0.00056093373120316
  86    -0.0027640294293361
  87    1.617328083015e-05
  88    4.1420344785987e-05
  89    0.00011468832029845
  90    -0.0001275658033528
  91    7.8239450472945e-05
  92    3.9532578407587e-05
  93    3.3978763670568e-06
  94    -1.9533504181298e-05
 Sym= A
 Ene=               4
 Spin= Alpha
 Occup=    1.00000
   1    8.7899003913345e-05
   2    0.0001203465353919
   3    -0.0018867741725244
   4    -0.00012830690261892
   5    -3.7611228874014e-06
   6    2.1915337327399e-06
   7    -0.00084170296260142
   8    0.00045403923862397
   9    0.00027869128646312
  10    -2.4800753975508e-06
  11    3.7263681188799e-05
  12    5.6060900957744e-05
  13    -7.5289796880137e-05
  14    1.6643068201991e-05
  15    -6.0809596361447e-05
  16    7.2898966090359e-06
  17    0.0040180481674082
  18    0.00024846419658036
  19    -0.00044103706360317
  20     -0.00026507643722
  21    -0.00038128105904564
  22    -0.0011431357009347
  23    -0.0010106473872122
  24    4.9756817484008e-06
  25    2.0544100432465e-05
  26    -6.6886747999465e-05
  27    4.3160282412039e-05
  28    4.6641639937033e-05
  29    -0.00025530820417202
  30    -0.00014050950631988
  31    6.7237113683777e-06
  32    0.00013585904042337
  33    0.00012680367649258
  34       1.0010147433041
  35    -0.0039491787800577
  36    -0.011065504598834
  37    -0.0011118167402284
  38    0.0024027114620102
  39     0.001404147798603
  40    -4.0392221171529e-05
  41    -0.00016756462024207
  42    -7.5361731719857e-05
  43    1.3338774426084e-05
  44    4.9159043425172e-05
  45    -0.00010165851652705
  46    8.8112928862317e-05
  47    7.1514860119481e-05
  48    0.00010690066617923
  49    0.00019823922140847
  50    -0.00076026972325041
  51    4.3133774495986e-06
  52    -8.496796485808e-06
  53    -4.5915759986585e-05
  54    7.4776491455264e-05
  55    0.00040040898629861
  56    0.00010509448242533
  57    2.1416836260389e-05
  58    -1.1465496713318e-05
  59    5.0712905818125e-06
  60    2.1811998081156e-05
  61    -1.3711243080246e-05
  62    -6.0966049352141e-05
  63    -0.00011465611328061
  64    0.00039332182356253
  65    -5.6916452171902e-06
  66    -3.0723103462457e-05
  67    -3.1231055317952e-05
  68    5.7155764815724e-05
  69    5.8161085083478e-05
  70    8.2456011870026e-05
  71    8.2581459052009e-06
  72    9.8644743963945e-07
  73    -9.450149976381e-06
  74    -1.4656619341856e-05
  75    -7.7718643660302e-07
  76    9.2823392566077e-05
  77    -6.1248712688018e-05
  78    2.9816112893604e-05
  79    -3.7461281521469e-05
  80    -5.4147726351631e-05
  81    -1.0904359955383e-05
  82    -1.2779778037793e-05
  83    0.00015426249459905
  84    8.5375914344978e-06
  85    8.4539198475273e-06
  86    -1.4027491229347e-05
  87    7.7066044543384e-05
  88    -4.0198283575629e-05
  89    -6.7620686294093e-05
  90    1.4356013616032e-05
  91    -3.0298557474321e-06
  92    8.8343797403724e-06
  93    -2.8745167967798e-06
  94    3.5924883136426e-06
 Sym= A
 Ene=               5
 Spin= Alpha
 Occup=    1.00000
   1    -6.0768618247743e-05
   2    7.4645487366854e-06
   3    0.0040181674995036
   4    -0.00024853785815252
   5    -0.00040012172386837
   6    -0.00032390370694629
   7    0.00038133819519582
   8    -0.0013406472080905
   9    -0.0007285274582954
  10    2.5944870297239e-06
  11    -3.6826221914307e-05
  12    -6.7892026577169e-05
  13    4.1775794086248e-05
  14    -3.5282007377936e-05
  15    8.7903882036122e-05
  16    0.00012033402950391
  17    -0.001886914522387
  18    0.00012835392880512
  19    7.5917647993247e-07
  20    -4.2893222172124e-06
  21    0.00084177925540511
  22    0.00041714214757256
  23    0.00033133900454761
  24    2.7175563207519e-05
  25    -2.8864907076333e-06
  26    6.852359486693e-05
  27    -5.8169543151513e-05
  28    -4.0696150265301e-05
  29    9.2839139250022e-05
  30    -6.1228862677581e-05
  31    -2.9812007172438e-05
  32    -6.3693684292096e-05
  33    -1.6681461663652e-05
  34    -6.0965605814117e-05
  35    -0.00011465745124539
  36    0.00039331502244989
  37    5.6899830064279e-06
  38    -3.986496037628e-05
  39    -1.8201221382681e-05
  40    -5.7157604124338e-05
  41    9.7376388301566e-05
  42    2.6447474781835e-05
  43    1.3788793434253e-05
  44    1.0673421276453e-06
  45    -7.1257089358545e-06
  46    -1.1463600205203e-05
  47    -6.6094049214647e-07
  48    -1.0906315211832e-05
  49    -1.2779348599966e-05
  50    0.00015429071006225
  51    -8.5490610388013e-06
  52    -1.029366528179e-05
  53    1.2747965558215e-05
  54    -7.708366640807e-05
  55    -7.7297232379646e-05
  56    -1.4638416023725e-05
  57    -7.3784286921076e-06
  58    -4.4114046369441e-06
  59    -3.00274477542e-07
  60    -1.5423604226483e-05
  61     1.61791152764e-06
  62       1.0010147075088
  63    -0.0039513490702089
  64    -0.011068005248533
  65     0.001112613028485
  66    0.0021416778364228
  67    0.0017784286242422
  68    4.0939539044513e-05
  69    -0.00012783546995263
  70    -0.00013108792769884
  71    -1.5115227884803e-05
  72    -5.037417081103e-05
  73    -0.00011360315379048
  74    7.1681982881714e-05
  75    -7.0640517841124e-05
  76    -0.00025527597768984
  77    -0.00014053587013701
  78    -6.7339103580015e-06
  79    0.00016561894161217
  80    8.4286116844731e-05
  81    0.0001069011467392
  82    0.00019823392316528
  83    -0.00076029166546244
  84    -4.3153107042753e-06
  85    -4.6041521339126e-05
  86    7.7391347897168e-06
  87    -7.4783300576493e-05
  88    0.00023571209417425
  89    0.0003403387728405
  90    -2.6450917913611e-05
  91    8.9630838589113e-06
  92    -1.5045427946071e-05
  93    -5.826375823218e-06
  94    1.546207723946e-05
 Sym= A
 Ene=               6
 Spin= Alpha
 Occup=    1.00000
   1    0.0024482186590761
   2    0.0022704676397936
   3    -0.018161559497048
   4    -0.007350094061082
   5     0.017585805866926
   6    0.0056238909756416
   7    -0.032750390596595
   8     0.025507093151341
   9     0.019303313017841
  10    -0.0048901448620864
  11    -0.023517685474313
  12     0.029321094604392
  13     0.016666150153468
  14    -0.0022091883906843
  15    0.0012754898325864
  16     0.023145718850718
  17     0.069080231271128
  18    -0.029647908572947
  19    0.0006738092018725
  20    0.0051230666262125
  21    -0.020330217009132
  22     0.009036847707596
  23    -0.012013392879766
  24    -0.0010728096000778
  25    -0.0011284081595006
  26    0.00063795528975643
  27    0.00050702497825129
  28    0.00058969517739222
  29    0.0076807388975166
  30     -0.01383357733477
  31    0.0023924306114725
  32    0.00071626237984013
  33    -0.001751060855244
  34    -0.00037481875988939
  35    -0.0022581715971871
  36    -0.0044989262073287
  37    0.0035735731975951
  38    -0.0031861211764501
  39    -0.00017971607095591
  40    0.0010403847504524
  41    -0.0059347662442065
  42    0.0011239922916086
  43    -6.2132287975052e-05
  44    -0.00025128896579527
  45    7.4997886536932e-05
  46    0.00048152034476306
  47    -0.00050737589969842
  48    0.0015298433752853
  49    0.00059345519200516
  50    -0.017647676920521
  51    0.0033991929561537
  52    0.0048309799849484
  53    -0.0042672577810077
  54    0.0055187945675418
  55    0.0086098627333425
  56    -0.0047014790308261
  57    8.5696612831082e-05
  58    -0.00019162267295315
  59    0.00013704721733455
  60    0.0002815676752522
  61    0.00033517306783799
  62    -0.0012313760362046
  63    0.0035101309061384
  64      0.02260724757923
  65    0.0051691984450224
  66    0.0036957135453407
  67      0.01062496863088
  68    0.0086658608294184
  69    0.0054797758915487
  70    0.0097437251950708
  71    -0.00030817016324126
  72    -0.0003442555332118
  73    0.00059359992321296
  74    0.00038151447159358
  75    -7.4445382279728e-05
  76    -0.043251943637074
  77    -0.048164672537864
  78    0.0020418465384892
  79    -0.0010732670013975
  80    -0.0029179256196077
  81    0.0011850847155149
  82    -0.0048635193999921
  83    -0.016363131558599
  84     -0.44816091207186
  85      0.49148700506028
  86    -0.058946549133207
  87     -0.31088009180309
  88      0.34010953338024
  89    -0.039021844421126
  90    0.0019908585531742
  91    0.0082941450407083
  92    -0.0098657061321442
  93    -0.0054027192015015
  94    0.0022642009974753
 Sym= A
 Ene=               7
 Spin= Alpha
 Occup=    1.00000
   1    0.00044627040680324
   2     0.020303272935428
   3     0.077994222316153
   4     0.037819699200169
   5    -0.0032984944212342
   6    -0.0016521286234705
   7     0.050257629889228
   8      0.01396380338185
   9    0.0039121544263154
  10    1.0448283617152e-05
  11    -0.0016074968894015
  12    -0.00073318243470305
  13    0.00047721908166019
  14    -0.0021913612605278
  15    0.0032070392535094
  16    0.0042597445613338
  17    -0.039227564392515
  18     0.014520677073087
  19    -0.0058023567216549
  20     0.011769880072092
  21     0.049457939016581
  22    -0.023324352411336
  23     0.013844366370087
  24    -0.024938849340024
  25    -0.0093817190587824
  26     -0.01830623513408
  27    0.0084987488727751
  28    -0.026541941697736
  29     -0.03986993939067
  30    -0.046515499263807
  31    -0.0022613749417354
  32    0.0030890941836976
  33    -0.00045453313724614
  34    0.00092400817368845
  35    -0.011194905987238
  36    -0.023148464441792
  37       0.5164691614243
  38    -0.046393194981531
  39      0.42311821402283
  40      0.35599640340992
  41    -0.034706018416225
  42      0.29045340965212
  43    0.0077313982000557
  44    0.0024779280423197
  45    0.0068289169846227
  46    -0.0026203838656852
  47    0.0095957440876969
  48    -0.0010964262482068
  49    0.00069636068863906
  50     0.015631501828886
  51    -0.0045458791961151
  52    -0.0046088586937296
  53    -0.0016602068564272
  54    -0.0089419466908975
  55    -0.0045137388239275
  56    0.0010589204946773
  57    -0.00047852516764762
  58    -0.00013664876309834
  59    -0.0004710090898987
  60    0.00024565650011395
  61    -0.00045150801692313
  62    0.00098645340940234
  63    0.0080960995330492
  64    0.0082838215856696
  65     0.012194576242366
  66    -0.00069854794592461
  67    -0.0031203114815053
  68    0.00072763882512847
  69    0.0011041022592794
  70    0.0016059268729948
  71    0.00082044120186854
  72    0.00083759101618901
  73    0.00032342653925996
  74    -0.0014342299136044
  75    0.00091611552998099
  76    -0.0080833035349789
  77    -0.010169989033815
  78    0.0022945148011336
  79    0.00026642497171229
  80    -0.0011383084741092
  81    0.00030221786527554
  82    -0.00014897763617969
  83    -0.0042696056479953
  84    -0.0040987934133696
  85    4.3976560684571e-05
  86    0.0030916255112101
  87    -0.0084810601354908
  88    -0.0029529698519967
  89    0.0033999923364807
  90    -0.00022159152231878
  91    -0.0005086919661975
  92    0.00022444913809753
  93    0.00014347223289643
  94    4.7128188131254e-05
 Sym= A
 Ene=               8
 Spin= Alpha
 Occup=    1.00000
   1    0.0012756390576981
   2     0.023147800654665
   3     0.069084569882889
   4       0.0296500121067
   5    0.0050451439325246
   6    -0.001119303118624
   7     0.020329946023643
   8    -0.0081973937624183
   9     0.012600604078999
  10    -0.00039467991049872
  11    -0.00094017361578995
  12    0.00092298586745115
  13    0.00089853385610487
  14    0.00085868997232376
  15    0.0024484712922205
  16    0.0022720061113614
  17     -0.01815956099498
  18     0.007352139756228
  19     0.011296970294793
  20     0.014599626511598
  21      0.03275216495631
  22     0.026859804289013
  23     0.017364678573054
  24    -0.027478682448432
  25    -0.0059690949731686
  26     0.019826289303732
  27    0.0036265172128009
  28     0.022856519845874
  29    -0.043251172136872
  30    -0.048164374925249
  31    -0.0020418022116958
  32    -0.0031089536087123
  33    -1.0523953513518e-05