[Molden Format]
made by pyscf v[2.0.1]
[Atoms] (AU)
C   1   6     0.00000000000000     0.00000000000000     0.00000000000000
C   2   6     2.85272299873892     0.00000000000000     0.00000000000000
H   3   1     3.62066923017674     0.00000000000000     1.90331545357504
F   4   9     3.65943188126013    -2.04308229183900    -1.24074875274501
F   5   9     3.65943188126013     2.04308229183900    -1.24074875274501
F   6   9    -0.80670888252121     0.05297879367154     2.38973554312721
H   7   1    -0.76794623143782    -1.64831953421148    -0.95165772678752
F   8   9    -0.80670888252121     2.09606108551054    -1.14898679038220
[GTO]
1 0
 s    8 1.00
                  6665  0.00069158396281299
                  1000  0.0053257961529341
                   228   0.027060721042034
                 64.71    0.10165684614077
                 21.06     0.2745748236174
                 7.495    0.44829431892377
                 2.797    0.28490261071525
                0.5215   0.015194859206082
 s    8 1.00
                  6665  -0.00029326965268655
                  1000  -0.0023180354739745
                   228  -0.011499786038565
                 64.71  -0.046826727009787
                 21.06   -0.12846616875047
                 7.495   -0.30126627246289
                 2.797   -0.25563070233011
                0.5215      1.093793361012
 s    1 1.00
                0.1596                   1
 p    3 1.00
                 9.439   0.056979251590039
                 2.002    0.31320721150073
                0.5456    0.76037674173753
 p    1 1.00
                0.1517                   1
 d    1 1.00
                  0.55                   1

2 0
 s    8 1.00
                  6665  0.00069158396281299
                  1000  0.0053257961529341
                   228   0.027060721042034
                 64.71    0.10165684614077
                 21.06     0.2745748236174
                 7.495    0.44829431892377
                 2.797    0.28490261071525
                0.5215   0.015194859206082
 s    8 1.00
                  6665  -0.00029326965268655
                  1000  -0.0023180354739745
                   228  -0.011499786038565
                 64.71  -0.046826727009787
                 21.06   -0.12846616875047
                 7.495   -0.30126627246289
                 2.797   -0.25563070233011
                0.5215      1.093793361012
 s    1 1.00
                0.1596                   1
 p    3 1.00
                 9.439   0.056979251590039
                 2.002    0.31320721150073
                0.5456    0.76037674173753
 p    1 1.00
                0.1517                   1
 d    1 1.00
                  0.55                   1

3 0
 s    3 1.00
                 13.01   0.033498726389998
                 1.962    0.23480080117413
                0.4446     0.8136829578829
 s    1 1.00
                 0.122                   1
 p    1 1.00
                 0.727                   1

4 0
 s    8 1.00
                 14710  0.00072067370873197
                  2207  0.0055504869689163
                 502.8   0.028254207662589
                 142.6    0.10639582836653
                 46.47    0.28668420124307
                  16.7    0.44843796582416
                 6.356    0.26464118141135
                 1.316   0.015326060993048
 s    8 1.00
                 14710  -0.00032119389049893
                  2207  -0.0025461915683188
                 502.8  -0.012643359507821
                 142.6   -0.05195749170489
                 46.47   -0.14344713812646
                  16.7   -0.33243762329603
                 6.356   -0.21865906750347
                 1.316     1.0955904138622
 s    1 1.00
                0.3897                   1
 p    3 1.00
                 22.67   0.064834021493887
                 4.977    0.34053535983101
                 1.347    0.73464640679382
 p    1 1.00
                0.3471                   1
 d    1 1.00
                  1.64                   1

5 0
 s    8 1.00
                 14710  0.00072067370873197
                  2207  0.0055504869689163
                 502.8   0.028254207662589
                 142.6    0.10639582836653
                 46.47    0.28668420124307
                  16.7    0.44843796582416
                 6.356    0.26464118141135
                 1.316   0.015326060993048
 s    8 1.00
                 14710  -0.00032119389049893
                  2207  -0.0025461915683188
                 502.8  -0.012643359507821
                 142.6   -0.05195749170489
                 46.47   -0.14344713812646
                  16.7   -0.33243762329603
                 6.356   -0.21865906750347
                 1.316     1.0955904138622
 s    1 1.00
                0.3897                   1
 p    3 1.00
                 22.67   0.064834021493887
                 4.977    0.34053535983101
                 1.347    0.73464640679382
 p    1 1.00
                0.3471                   1
 d    1 1.00
                  1.64                   1

6 0
 s    8 1.00
                 14710  0.00072067370873197
                  2207  0.0055504869689163
                 502.8   0.028254207662589
                 142.6    0.10639582836653
                 46.47    0.28668420124307
                  16.7    0.44843796582416
                 6.356    0.26464118141135
                 1.316   0.015326060993048
 s    8 1.00
                 14710  -0.00032119389049893
                  2207  -0.0025461915683188
                 502.8  -0.012643359507821
                 142.6   -0.05195749170489
                 46.47   -0.14344713812646
                  16.7   -0.33243762329603
                 6.356   -0.21865906750347
                 1.316     1.0955904138622
 s    1 1.00
                0.3897                   1
 p    3 1.00
                 22.67   0.064834021493887
                 4.977    0.34053535983101
                 1.347    0.73464640679382
 p    1 1.00
                0.3471                   1
 d    1 1.00
                  1.64                   1

7 0
 s    3 1.00
                 13.01   0.033498726389998
                 1.962    0.23480080117413
                0.4446     0.8136829578829
 s    1 1.00
                 0.122                   1
 p    1 1.00
                 0.727                   1

8 0
 s    8 1.00
                 14710  0.00072067370873197
                  2207  0.0055504869689163
                 502.8   0.028254207662589
                 142.6    0.10639582836653
                 46.47    0.28668420124307
                  16.7    0.44843796582416
                 6.356    0.26464118141135
                 1.316   0.015326060993048
 s    8 1.00
                 14710  -0.00032119389049893
                  2207  -0.0025461915683188
                 502.8  -0.012643359507821
                 142.6   -0.05195749170489
                 46.47   -0.14344713812646
                  16.7   -0.33243762329603
                 6.356   -0.21865906750347
                 1.316     1.0955904138622
 s    1 1.00
                0.3897                   1
 p    3 1.00
                 22.67   0.064834021493887
                 4.977    0.34053535983101
                 1.347    0.73464640679382
 p    1 1.00
                0.3471                   1
 d    1 1.00
                  1.64                   1

[5d]
[7f]
[9g]

[MO]
 Sym= A
 Ene=               0
 Spin= Alpha
 Occup=    1.00000
   1    -0.00021175500981291
   2    -0.00088088433828281
   3    0.0028449561230498
   4    -0.001081663689888
   5    -5.6436858532246e-05
   6    -9.1968219303528e-05
   7    0.0012845808252758
   8    0.0002433549791375
   9    0.00032704676582336
  10    0.00012294609898948
  11    1.5364985658636e-05
  12    -1.6192417462102e-05
  13    -0.0001830813104131
  14    -2.5091921067095e-05
  15       1.0018718768468
  16    -0.0009351864287485
  17    -0.009695692995316
  18    0.00014972003841214
  19    -6.0516623967732e-05
  20    -0.003057112561794
  21    0.0016726850182284
  22    -7.2998128370896e-05
  23    -0.0015578715446848
  24    -9.5657915675811e-05
  25    -0.00010596726249204
  26    1.509317468761e-05
  27    -0.00030303862561093
  28    5.3744568481285e-07
  29    -0.0030878491236567
  30    0.00087602366486735
  31    -5.5934227068785e-05
  32    1.2517474339096e-05
  33    0.00033010972466985
  34    0.00014396891050499
  35    -9.2903702243664e-05
  36    -0.00072068013691847
  37    0.00044372326446409
  38    -0.0010604594504752
  39    -0.00054712419799376
  40    0.0004333513191449
  41    -0.0015900718200447
  42    -0.00068883360300759
  43    3.7431911766397e-05
  44    6.6436009902383e-05
  45    -0.00022231069655041
  46    0.0001457560005073
  47    0.00012210173661977
  48    0.00012587815459527
  49    -0.00012940150229113
  50    -0.00060891980673311
  51    0.00044783586358567
  52    0.0010597071613321
  53    -0.00055421009550903
  54    0.00043935202013442
  55    0.0015730515243854
  56    -0.00066048272114229
  57    3.8574563841449e-05
  58    6.434062941483e-05
  59    0.00021527029899691
  60    0.00014228456022613
  61    -0.00011769190025037
  62    2.0253752482478e-05
  63    0.00015669017875132
  64    -5.5866418748862e-05
  65    0.00031669328984141
  66    9.5184966514963e-06
  67    -8.6506160707623e-05
  68    0.0003141563037968
  69    -2.5129787534587e-05
  70    -1.8118784725918e-05
  71    8.5726008744933e-06
  72    1.5098681833495e-06
  73    4.726459009695e-06
  74    1.4559152270154e-05
  75    -1.313848228099e-06
  76    4.6618278866478e-05
  77    0.00053170662359011
  78    7.2101011426975e-05
  79    3.6814968162011e-05
  80    1.6932281351887e-05
  81    -1.8046803452061e-05
  82    1.091933649326e-05
  83    -2.7650879814076e-05
  84    0.00012743268392107
  85    -2.0670150762663e-05
  86    5.9591703505103e-05
  87    0.00024505740202524
  88    3.3177990416394e-05
  89    -2.5405026571087e-05
  90    -1.7982665468947e-05
  91    1.166582334732e-08
  92    -2.1314245427265e-06
  93    2.2508027898505e-05
  94    -2.8077567343039e-06
 Sym= A
 Ene=               1
 Spin= Alpha
 Occup=    1.00000
   1       1.0018718769349
   2    -0.000935188165998
   3    -0.0096956929709079
   4    -0.00014970632654477
   5    0.0026172875913913
   6    0.0015809683115141
   7    -0.0016726813812701
   8    0.0013126603192184
   9    0.00084215523124926
  10    0.00022010597121956
  11    -5.251827180037e-05
  12    -0.00019541645713037
  13    -0.00012073106734636
  14    -9.2039198834763e-05
  15    -0.00021175521476937
  16    -0.00088087908244607
  17    0.0028449609594552
  18    0.0010816543603079
  19    5.1431151126072e-05
  20    9.4859800229652e-05
  21    -0.0012845834499753
  22    -0.00016155306269952
  23    -0.00037427542465846
  24    9.140207335073e-05
  25    -1.4048042860629e-05
  26    4.8364613218517e-06
  27    -0.00020129207873302
  28    2.5852103131284e-05
  29    4.6617288319934e-05
  30    0.00053170476081421
  31    -7.2101189845755e-05
  32    3.7437968470579e-06
  33    -4.0348820896881e-05
  34    2.0253807752748e-05
  35    0.00015668961442364
  36    -5.5867308428567e-05
  37    -0.00031668516124278
  38    7.967645830754e-05
  39    3.5006442066042e-05
  40    -0.00031415022724116
  41    3.1268225485485e-06
  42    3.0820135199566e-05
  43    -6.9832223791033e-06
  44    -3.8282135437572e-07
  45    1.5096880911015e-05
  46    5.5779859217719e-06
  47    1.9645564786434e-06
  48    -1.8046751268813e-05
  49    1.0919405672279e-05
  50    -2.7652008259506e-05
  51    -0.00012743081781873
  52    -6.1944708463098e-05
  53    -1.1896011774824e-05
  54    -0.000245055322394
  55    3.8589430947437e-05
  56    -1.6031303044325e-05
  57    -1.3970179613119e-05
  58    -2.4258236970514e-06
  59    -4.806474740292e-06
  60    2.4824674693056e-05
  61    1.4140830230155e-06
  62    0.00014396894063779
  63    -9.2904504491036e-05
  64    -0.00072068085220241
  65    -0.00044372621294605
  66    -5.6400260242962e-05
  67    0.0011919484810355
  68    -0.00043335397532368
  69    -0.00019848484584743
  70    0.0017214601480892
  71    -0.00026608349542646
  72    0.00013896114519841
  73    -1.9967471791715e-05
  74    -2.947853004738e-05
  75    -3.5155120359909e-06
  76    -0.0030878610813547
  77    0.00087601952324022
  78    5.5933946007675e-05
  79    -0.00027962545089683
  80    -0.00017589581175883
  81    0.00012587824836029
  82    -0.00012940135777634
  83    -0.00060892037031267
  84    -0.00044783474937848
  85     0.001009813972582
  86    -0.00064062970973933
  87    -0.00043935214465919
  88    0.0013585204717965
  89    -0.0010320626266903
  90    6.4214407462081e-05
  91    -6.9753762116524e-05
  92    0.00019817712711427
  93    0.00015708789763892
  94    0.00011456640482663
 Sym= A
 Ene=               2
 Spin= Alpha
 Occup=    1.00000
   1    9.2860875952924e-05
   2    0.0001270226606807
   3    -0.0019739385223257
   4    -0.00012077444274245
   5    5.2324249741351e-06
   6    5.4595773016053e-07
   7    -0.00092036100718378
   8    -0.00046063248880785
   9    0.00025013585944246
  10    -4.0399338976166e-06
  11    3.1443587805289e-05
  12    -5.5278449337548e-05
  13    -7.4706885247131e-05
  14    -2.2829334986476e-05
  15    -6.6718534780137e-05
  16    -3.1900103096015e-06
  17    0.0041267053205347
  18    0.00024370266330149
  19    0.00044173314603632
  20    -0.00026252371305467
  21    -0.00042046130885243
  22    0.0011411474085596
  23    -0.001024207446246
  24    1.5153661088998e-06
  25    1.5709169121636e-05
  26    6.8983916864535e-05
  27    4.1515722149325e-05
  28    -4.9570759166383e-05
  29    -0.00025627464664349
  30    -0.00014019439899956
  31    6.548527224786e-06
  32    -0.00013531634661489
  33    0.00012694285570344
  34    0.00010947599671493
  35    0.00020387063328019
  36    -0.00077848147982885
  37    4.3409056388644e-06
  38    1.0718035371089e-05
  39    -4.655449314153e-05
  40    7.5472532680545e-05
  41    -0.00040756567446969
  42    0.00010425155008924
  43    2.1341922370176e-05
  44    -1.1453902297391e-05
  45    -5.3822653841269e-06
  46    2.2997951418781e-05
  47    1.3906026654415e-05
  48       1.0010184154923
  49    -0.0039275153719555
  50    -0.011067624886885
  51    -0.0011081359618501
  52    -0.002383382957851
  53    0.0014214513673194
  54    -3.1548426846264e-05
  55    0.00018924991133713
  56    -5.5646731823057e-05
  57    1.3853294860086e-05
  58    4.8191222117416e-05
  59    0.00010130737694041
  60    8.8836748952632e-05
  61    -7.2489547298048e-05
  62    -1.7454868571577e-05
  63    -2.5177575272223e-05
  64    0.00016687084664288
  65    -3.302729672578e-06
  66    -6.9591984464669e-06
  67    -1.5354673837343e-05
  68    0.00012238542340657
  69    5.5902964313386e-05
  70    -6.0910023197092e-05
  71    9.0230900151624e-06
  72    -4.9289322858772e-06
  73    -1.3986657941883e-05
  74    -2.8602607670599e-06
  75    -1.0437067814879e-06
  76    0.00012050517582187
  77    -9.1047325416468e-05
  78    2.959611622949e-05
  79    4.6990474799391e-05
  80    -4.4766119196804e-05
  81    -6.4062807578183e-05
  82    -0.00012034754785437
  83    0.00040566675151316
  84    -1.1170878780807e-05
  85    3.8780184057129e-05
  86    -1.9616090064822e-05
  87    7.9642208689896e-05
  88    -8.4153127287425e-05
  89    5.0033178576301e-05
  90    1.1698307030239e-05
  91    2.5121075387754e-06
  92    8.7046949173028e-06
  93    -1.1887343101058e-05
  94    -2.2643291872641e-08
 Sym= A
 Ene=               3
 Spin= Alpha
 Occup=    1.00000
   1    -6.6710742611082e-05
   2    -3.1566525932155e-06
   3    0.0041267198452862
   4    -0.00024371054848023
   5    0.00044826397778561
   6    -0.00025132647376025
   7    0.00042047985258076
   8    0.0014575548463209
   9    -0.00047617832524197
  10    2.4592443691643e-05
  11    -3.5079731956511e-05
  12    5.3599996875331e-05
  13    5.4830109135064e-05
  14    3.8403206579252e-05
  15    9.2860797794323e-05
  16    0.00012701397173707
  17    -0.0019739708901239
  18    0.00012079341838727
  19    2.1463982695977e-06
  20    -4.8045161550794e-06
  21    0.00092037987170782
  22    -0.00044693019259958
  23    0.00027385260057083
  24    7.5698545755363e-06
  25    -4.0476541085988e-06
  26    -6.3018030789684e-05
  27    -6.8003988626857e-05
  28    3.864327606686e-05
  29    0.0001205107581419
  30    -9.1039759773323e-05
  31    -2.9595404386815e-05
  32    6.2263398146114e-05
  33    -1.8312133470288e-05
  34    -1.7454953895955e-05
  35    -2.5176246564454e-05
  36     0.000166876903235
  37    3.2983537267002e-06
  38    9.8194462644713e-06
  39    1.3706399726514e-05
  40    -0.00012238940179694
  41    8.0702596907333e-05
  42    -1.7955904366819e-05
  43    -9.7599301419665e-06
  44     -3.3680616893e-06
  45    -1.4644778670136e-06
  46    -1.3705007381474e-05
  47    -3.7464484269112e-06
  48    -6.4062903327716e-05
  49    -0.00012035011081762
  50    0.00040566133436846
  51    1.1173783837045e-05
  52    3.6381318915332e-05
  53    -2.3777472152474e-05
  54    -7.9640629276904e-05
  55    -8.5405623834218e-05
  56    4.7860355186679e-05
  57    1.2787154867469e-05
  58    1.2367134036763e-06
  59    7.9787570462044e-06
  60    -1.1258210765511e-05
  61    2.1866691727467e-06
  62    0.00010947532081873
  63    0.00020387595162572
  64    -0.00077846324276464
  65    -4.3381399766284e-06
  66    4.5678378992194e-05
  67    1.3982625494482e-05
  68    -7.5471146050472e-05
  69    -0.00029406444011989
  70    0.00030082466279343
  71    -2.1641506165975e-05
  72    6.3160330904588e-06
  73    2.3273139101793e-05
  74    -1.8188292218278e-06
  75    -1.6871760236036e-05
  76    -0.00025627585671844
  77    -0.00014020561097174
  78    -6.5503102955587e-06
  79    -0.00017759266760845
  80    5.3714458749686e-05
  81       1.0010184081961
  82    -0.0039279374465735
  83    -0.011068110531875
  84    0.0011084420533959
  85    -0.0024228881769632
  86     0.001353283835785
  87    3.1759163434981e-05
  88    0.00014269077999567
  89    -0.00013611305165195
  90    1.6543859237087e-05
  91    -3.8679954395892e-05
  92    9.9511063530202e-05
  93    9.0391442903766e-05
  94    7.797291865772e-05
 Sym= A
 Ene=               4
 Spin= Alpha
 Occup=    1.00000
   1    -4.9296739760038e-05
   2    3.1140060310402e-05
   3    0.0039179073366419
   4    -0.00024252285209584
   5    5.1638813120746e-06
   6    0.00051726755235218
   7    0.00035407013148627
   8    0.00033711544343943
   9    0.0014252050011609
  10    -6.8887169272764e-05
  11    4.3840806334862e-05
  12    -1.1538395356608e-05
  13    -6.7258868976612e-06
  14    -2.1556111064121e-06
  15    0.00010109439240764
  16    0.0001564775333669
  17    -0.0018085810520187
  18    0.00014526043640201
  19     3.54128439887e-06
  20    6.1657634526299e-05
  21    0.00081955507169111
  22    -0.00012908685893751
  23    -0.00029758390985395
  24    0.00012457154127668
  25    5.4158886586027e-05
  26    -1.8124241151658e-06
  27    -1.6594442578841e-05
  28    1.3786121312198e-05
  29    8.0199062370251e-05
  30    6.6785558147094e-06
  31    3.9604342095253e-05
  32    1.3797858503399e-05
  33    1.5499952437132e-05
  34    -1.2249788918104e-05
  35    -1.5740833331124e-05
  36    0.00013024459365333
  37    1.6982320183888e-06
  38    9.4142571003538e-06
  39    8.4985281782057e-06
  40    -0.00011103791819284
  41    4.3756500921316e-05
  42    2.7890731325224e-05
  43    9.5867930746723e-06
  44    -1.5850596687018e-07
  45    1.2072519227377e-05
  46    -2.1123659381754e-06
  47    -2.4516041672333e-06
  48    -1.6108041721155e-05
  49    -2.4385858478406e-05
  50    0.0001798073456816
  51    -1.0874727133071e-05
  52    -9.3981727773497e-06
  53     4.54987398356e-07
  54    -6.1506922039164e-05
  55    -4.1737573935817e-05
  56    5.6233484838395e-05
  57    1.4899606307286e-05
  58    7.3958079566793e-07
  59    -9.9182721353951e-06
  60    -3.2914370201183e-06
  61    2.5703185053926e-06
  62       1.0010153115462
  63    -0.0040152460370496
  64    -0.011130494764933
  65    0.0011452044670965
  66    -3.817321067897e-05
  67    -0.0027976808635268
  68    2.5174607209593e-05
  69    -3.6097393525308e-05
  70    0.00011701093566935
  71    -0.0001339158339306
  72    8.0226245829526e-05
  73    -1.3356090282116e-06
  74    3.8893877072675e-07
  75    6.3864367876015e-06
  76    -0.00024286327932945
  77    -0.00014787392430432
  78    -5.9686211694448e-06
  79    -4.5315311388589e-05
  80    -0.00017566560979527
  81    0.00010774073670798
  82    0.00020094714045111
  83    -0.00076274864431291
  84    -4.2780232827646e-06
  85    3.5375842514033e-05
  86    3.3590211806482e-05
  87    -6.7055816574269e-05
  88    0.00010446372982065
  89    -0.00039518844575173
  90    -1.2996544397832e-05
  91    -1.7463521030845e-05
  92    2.7164245604463e-05
  93    1.7156689586667e-06
  94    -3.7087214920964e-06
 Sym= A
 Ene=               5
 Spin= Alpha
 Occup=    1.00000
   1    0.0001010933576773
   2    0.00015646828372027
   3    -0.0018085833117012
   4    -0.00014526571747744
   5    -5.1616227565402e-05
   6    -3.3888689610158e-05
   7    -0.00081951911015184
   8    0.00019319695670575
   9    0.00026060709370349
  10    -6.152619291925e-06
  11    3.9022444363618e-05
  12    8.533632037289e-05
  13    -9.206655071532e-05
  14    4.0014407157285e-05
  15    -4.9317558555097e-05
  16    3.1056604798555e-05
  17    0.0039178445327003
  18    0.00024248830817786
  19    -0.00044530765150009
  20    -0.00026305099599221
  21    -0.00035405525404496
  22    -0.0010657156661939
  23    -0.0010045725325477
  24    4.3234756942762e-06
  25    2.0052054966671e-05
  26    -6.0339094145934e-05
  27    3.5530986430395e-05
  28    3.9044434708643e-05
  29    -0.00024285696389028
  30    -0.00014783716529218
  31    5.9648706628092e-06
  32    0.00012947722369028
  33    0.00012707703252455
  34       1.0010153286628
  35    -0.0040141445362145
  36      -0.0111292237066
  37    -0.001145141950941
  38    0.0024033024835658
  39    0.0014316522436544
  40    -2.5136325929647e-05
  41    -0.00011971021303399
  42    -2.7412518343222e-05
  43    1.5486436310272e-05
  44    4.564564724139e-05
  45    -0.0001009435360918
  46    8.6652009164713e-05
  47      6.6288058618e-05
  48    0.00010774060142889
  49    0.00020094902426983
  50    -0.00076273868192263
  51    4.2801568179011e-06
  52    -1.1408930721469e-05
  53    -4.7429766972892e-05
  54    6.7056720996599e-05
  55    0.00039446593549003
  56    0.0001071294606213
  57    2.0884507362186e-05
  58    -1.194407907216e-05
  59    4.5777325951481e-06
  60    2.1277446711367e-05
  61    -1.3269493115317e-05
  62    -1.2249436903668e-05
  63    -1.5741403127838e-05
  64    0.00013023704987973
  65    -1.70119853768e-06
  66    -2.6536788634427e-06
  67    -1.240192613093e-05
  68    0.00011103240514908
  69    -2.2781184376248e-06
  70    -5.184089796354e-05
  71    9.2281532173655e-06
  72    -2.2024339329933e-06
  73    1.2311547809217e-05
  74    -2.3193293157155e-06
  75    1.088667976559e-06
  76    8.019807479129e-05
  77    6.7296415817799e-06
  78    -3.9601549273532e-05
  79    -6.5238728411123e-06
  80    -1.9699295491337e-05
  81    -1.6108068183766e-05
  82    -2.4386221168524e-05
  83    0.00017980645081922
  84    1.0874273942827e-05
  85    -5.0939248756378e-06
  86    7.9097059565011e-06
  87    6.1502936801559e-05
  88    -6.9572117523973e-05
  89    8.0259370507658e-06
  90    -7.1632924749192e-06
  91    2.5959025803491e-06
  92    4.7901902414495e-06
  93    -1.6029411009971e-05
  94    -6.4465052404817e-07
 Sym= A
 Ene=               6
 Spin= Alpha
 Occup=    1.00000
   1    0.0015774710637941
   2     0.012978612259886
   3     0.022236820368153
   4     -0.01920673379162
   5     0.036658877464022
   6    -0.015527903695886
   7    -0.014752512681443
   8     0.040545071746699
   9    -0.020769367989148
  10    -0.012180143367918
  11    -0.019507579723818
  12      0.03209666012937
  13     0.010024281910966
  14    -0.0070087000112922
  15    0.0019127549990547
  16     0.019506412622757
  17     0.031591694752711
  18    -0.019293397082356
  19    0.0014399000486187
  20     0.004837432669477
  21    0.0029468869538781
  22    0.0032985605967647
  23    0.0037762748684381
  24    -0.00033319294385316
  25    -0.00039826924098138
  26    0.00036708468839677
  27    -6.6033850178981e-05
  28    -0.00079209283141906
  29    0.0086436285008828
  30    -0.016439601965621
  31    0.0024421769572864
  32    0.00081417800051273
  33    -0.0017627855314431
  34    -0.00069248672296595
  35    -0.0030186463657671
  36    -0.0018411199205174
  37    0.0030958512754022
  38    -0.003316788455853
  39    -0.0001159705153047
  40    -0.0011996702751798
  41    -0.0044649611269185
  42    0.00014760799412739
  43    -6.0160933832577e-05
  44    -0.00017068267841421
  45    1.7081461107862e-05
  46    0.00043832366047515
  47    -0.00040493891232107
  48    0.00096324783789344
  49    -0.0015616475468881
  50    -0.014156472633167
  51    0.0058047520313607
  52    0.0049262697776615
  53    -0.0042099377916619
  54    0.0076603608524515
  55    0.0062502805011067
  56    -0.0047517351069566
  57    9.3541197866242e-05
  58    -2.4118608648426e-05
  59    0.00013214402440995
  60    0.00025533272514072
  61    0.00010579854187463
  62    0.00079024756439738
  63    -0.0013057456081706
  64    -0.004976227182284
  65     -0.37669748358411
  66      0.52650663943813
  67     -0.14134938357596
  68     -0.26205825270231
  69      0.36405416322824
  70    -0.096068893366375
  71     0.005471426280401
  72    0.0067735621688293
  73    -0.010926629632971
  74    -0.0024109150829347
  75    0.0049751031665805
  76     0.013514671592093
  77     0.010812189623167
  78    -0.00063080828666107
  79    -0.00084764539837363
  80    0.00072228943647741
  81    0.0017533170251104
  82    -0.014733885319792
  83    -0.051699043734617
  84    -0.0034127773739832
  85     0.026377238254267
  86    -0.029750724776551
  87    -0.0042668849157914
  88     0.025728630701721
  89    -0.029179404594817
  90    0.00035117385800974
  91    -0.00066740439366889
  92    0.0002958540505085
  93    -9.560413329274e-05
  94    -0.00035372376513582
 Sym= A
 Ene=               7
 Spin= Alpha
 Occup=    1.00000
   1    0.00031680099069388
   2     0.018851134160812
   3     0.075205085594473
   4     0.034368427207385
   5    0.0023217315502683
   6    -0.00076183917577315
   7     0.047016390844892
   8    -0.014483313905372
   9    0.0052715969547496
  10    -0.00028360712287312
  11    -0.0010038426893049
  12    0.00081488329564357
  13    0.00056996612462901
  14    0.0021773737495667
  15    0.0030734122034229
  16    0.0028465572916122
  17    -0.040203159526657
  18     0.011478866947248
  19     0.010063990826357
  20     0.014606906714923
  21     0.046410242381452
  22     0.028041182900044
  23      0.01847883658066
  24    -0.027241115103306
  25    -0.0071821343123465
  26     0.019621537613515
  27    0.0048873040321756
  28     0.024659204486546
  29    -0.041861967477149
  30    -0.048713877577514
  31    -0.0023191674102055
  32    -0.0031799409458691
  33    -0.0003882619342841
  34    -0.0013629858878525
  35    0.0025283542962501
  36     0.022727135806576
  37    -0.0049151369342808
  38    0.0095397652335388
  39    -0.00066179688405977
  40    -0.0094499971462098
  41    0.0096603256011336
  42    0.0018348924976178
  43    -0.00051232694102938
  44    -6.2911581818874e-05
  45    0.00050886436108429
  46    0.00026438177548883
  47    0.00039426182804226
  48    0.00089318976051968
  49    -0.0087143912915481
  50    -0.019696106881877
  51      0.46708504338901
  52     0.094651230812931
  53      0.46895930824394
  54      0.32196040376217
  55     0.067671362003768
  56      0.32249031507784
  57    0.0086024257938208
  58    0.0014275967427714
  59    -0.0071544573042218
  60    -0.0014163618404128
  61    -0.0090941722706403
  62    0.0006647525106128
  63    0.00034264539827261
  64    -0.0070435153447691
  65    -0.0038034975123365
  66    -0.00041138255805049
  67    0.0037161650707965
  68    -0.008245805206126
  69    0.0022917592174126
  70    0.0049689765298849
  71    -0.0002657876015585
  72    -0.00045695127479079
  73    -0.00012537610888437
  74    7.1143744989238e-05
  75     2.82456807867e-05
  76    -0.0054392854288728
  77    -0.0085226999338755
  78    0.0022565743662641
  79    0.00016071048096824
  80    -0.0012184222668603
  81     0.000671613966725
  82    0.0064896874708061
  83    0.0081058327957527
  84    0.0097879623807243
  85    -0.0004377172460441
  86    -0.0051230067707407
  87    3.0638763996329e-05
  88    -0.0019154924318525
  89    -0.00019543091649956
  90    0.00049020645894591
  91    0.00093391154374973
  92    -0.00023251321794633
  93    -0.0012763164784606
  94    -0.00069620657485416
 Sym= A
 Ene=               8
 Spin= Alpha
 Occup=    1.00000
   1    0.0010307929395411
   2     0.025794583199229
   3     0.079904099581495
   4     0.032227071464634
   5    -0.0063988108147218
   6    -0.0035736528962137
   7     0.017584999544932
   8    0.0046228484503349
   9     0.006538832020874
  10    -6.2725142620393e-05
  11    -0.0011147871451904
  12    -0.00094569430953578
  13    0.00078050981228232
  14    -0.00095472706263207
  15    0.0027653804313988
  16    0.0042948739822763
  17    -0.014687486801938
  18     0.010251998682823
  19    -0.0070350072214391
  20     0.011159868794836
  21     0.034404463396744
  22    -0.020912959780329
  23      0.01493278383303
  24    -0.025022284481226
  25    -0.0082800873465252
  26    -0.018401154074872
  27    0.0077856173936632
  28    -0.025014141468027
  29     -0.04155146669517
  30    -0.046426902555796
  31    -0.0020017595124279
  32    0.0029428573948029
  33    -2.6214418084164e-05