[Molden Format]
made by pyscf v[2.0.1]
[Atoms] (AU)
C   1   6     0.00000000000000     0.00000000000000     0.00000000000000
C   2   6     2.85272299873892     0.00000000000000     0.00000000000000
H   3   1     3.62066923017674     0.00000000000000     1.90331545357504
F   4   9     3.65943188126013    -2.04308229183900    -1.24074875274501
F   5   9     3.65943188126013     2.04308229183900    -1.24074875274501
F   6   9    -0.80670888252121    -2.26373667011121    -0.76755391149953
H   7   1    -0.76794623143782     1.45802422671364    -1.22342759088295
F   8   9    -0.80670888252121     0.36279929541697     2.36262976149657
[GTO]
1 0
 s    8 1.00
                  6665  0.00069158396281299
                  1000  0.0053257961529341
                   228   0.027060721042034
                 64.71    0.10165684614077
                 21.06     0.2745748236174
                 7.495    0.44829431892377
                 2.797    0.28490261071525
                0.5215   0.015194859206082
 s    8 1.00
                  6665  -0.00029326965268655
                  1000  -0.0023180354739745
                   228  -0.011499786038565
                 64.71  -0.046826727009787
                 21.06   -0.12846616875047
                 7.495   -0.30126627246289
                 2.797   -0.25563070233011
                0.5215      1.093793361012
 s    1 1.00
                0.1596                   1
 p    3 1.00
                 9.439   0.056979251590039
                 2.002    0.31320721150073
                0.5456    0.76037674173753
 p    1 1.00
                0.1517                   1
 d    1 1.00
                  0.55                   1

2 0
 s    8 1.00
                  6665  0.00069158396281299
                  1000  0.0053257961529341
                   228   0.027060721042034
                 64.71    0.10165684614077
                 21.06     0.2745748236174
                 7.495    0.44829431892377
                 2.797    0.28490261071525
                0.5215   0.015194859206082
 s    8 1.00
                  6665  -0.00029326965268655
                  1000  -0.0023180354739745
                   228  -0.011499786038565
                 64.71  -0.046826727009787
                 21.06   -0.12846616875047
                 7.495   -0.30126627246289
                 2.797   -0.25563070233011
                0.5215      1.093793361012
 s    1 1.00
                0.1596                   1
 p    3 1.00
                 9.439   0.056979251590039
                 2.002    0.31320721150073
                0.5456    0.76037674173753
 p    1 1.00
                0.1517                   1
 d    1 1.00
                  0.55                   1

3 0
 s    3 1.00
                 13.01   0.033498726389998
                 1.962    0.23480080117413
                0.4446     0.8136829578829
 s    1 1.00
                 0.122                   1
 p    1 1.00
                 0.727                   1

4 0
 s    8 1.00
                 14710  0.00072067370873197
                  2207  0.0055504869689163
                 502.8   0.028254207662589
                 142.6    0.10639582836653
                 46.47    0.28668420124307
                  16.7    0.44843796582416
                 6.356    0.26464118141135
                 1.316   0.015326060993048
 s    8 1.00
                 14710  -0.00032119389049893
                  2207  -0.0025461915683188
                 502.8  -0.012643359507821
                 142.6   -0.05195749170489
                 46.47   -0.14344713812646
                  16.7   -0.33243762329603
                 6.356   -0.21865906750347
                 1.316     1.0955904138622
 s    1 1.00
                0.3897                   1
 p    3 1.00
                 22.67   0.064834021493887
                 4.977    0.34053535983101
                 1.347    0.73464640679382
 p    1 1.00
                0.3471                   1
 d    1 1.00
                  1.64                   1

5 0
 s    8 1.00
                 14710  0.00072067370873197
                  2207  0.0055504869689163
                 502.8   0.028254207662589
                 142.6    0.10639582836653
                 46.47    0.28668420124307
                  16.7    0.44843796582416
                 6.356    0.26464118141135
                 1.316   0.015326060993048
 s    8 1.00
                 14710  -0.00032119389049893
                  2207  -0.0025461915683188
                 502.8  -0.012643359507821
                 142.6   -0.05195749170489
                 46.47   -0.14344713812646
                  16.7   -0.33243762329603
                 6.356   -0.21865906750347
                 1.316     1.0955904138622
 s    1 1.00
                0.3897                   1
 p    3 1.00
                 22.67   0.064834021493887
                 4.977    0.34053535983101
                 1.347    0.73464640679382
 p    1 1.00
                0.3471                   1
 d    1 1.00
                  1.64                   1

6 0
 s    8 1.00
                 14710  0.00072067370873197
                  2207  0.0055504869689163
                 502.8   0.028254207662589
                 142.6    0.10639582836653
                 46.47    0.28668420124307
                  16.7    0.44843796582416
                 6.356    0.26464118141135
                 1.316   0.015326060993048
 s    8 1.00
                 14710  -0.00032119389049893
                  2207  -0.0025461915683188
                 502.8  -0.012643359507821
                 142.6   -0.05195749170489
                 46.47   -0.14344713812646
                  16.7   -0.33243762329603
                 6.356   -0.21865906750347
                 1.316     1.0955904138622
 s    1 1.00
                0.3897                   1
 p    3 1.00
                 22.67   0.064834021493887
                 4.977    0.34053535983101
                 1.347    0.73464640679382
 p    1 1.00
                0.3471                   1
 d    1 1.00
                  1.64                   1

7 0
 s    3 1.00
                 13.01   0.033498726389998
                 1.962    0.23480080117413
                0.4446     0.8136829578829
 s    1 1.00
                 0.122                   1
 p    1 1.00
                 0.727                   1

8 0
 s    8 1.00
                 14710  0.00072067370873197
                  2207  0.0055504869689163
                 502.8   0.028254207662589
                 142.6    0.10639582836653
                 46.47    0.28668420124307
                  16.7    0.44843796582416
                 6.356    0.26464118141135
                 1.316   0.015326060993048
 s    8 1.00
                 14710  -0.00032119389049893
                  2207  -0.0025461915683188
                 502.8  -0.012643359507821
                 142.6   -0.05195749170489
                 46.47   -0.14344713812646
                  16.7   -0.33243762329603
                 6.356   -0.21865906750347
                 1.316     1.0955904138622
 s    1 1.00
                0.3897                   1
 p    3 1.00
                 22.67   0.064834021493887
                 4.977    0.34053535983101
                 1.347    0.73464640679382
 p    1 1.00
                0.3471                   1
 d    1 1.00
                  1.64                   1

[5d]
[7f]
[9g]

[MO]
 Sym= A
 Ene=               0
 Spin= Alpha
 Occup=    1.00000
   1    -0.00020956244533135
   2    -0.00087992112935451
   3    0.0028220553102646
   4    -0.0010775065949708
   5    5.1391349940142e-05
   6    -9.8628805693455e-05
   7    0.0012494940719553
   8    -0.00018134947137978
   9    0.00035911105752445
  10    0.00011749697262928
  11    1.0238944617431e-05
  12    2.4190865203964e-05
  13    -0.00018688366458664
  14    2.5491941867373e-05
  15       1.0018688755106
  16    -0.00094045834165093
  17    -0.0096506939326612
  18    0.00014881929118792
  19    6.2660655491438e-05
  20    -0.0030638977894782
  21    0.0016556387585329
  22    7.7893070712671e-05
  23    -0.001573500862691
  24    -9.7301258795329e-05
  25    -0.00010730536210652
  26    -1.6171499612386e-05
  27    -0.00030380761876567
  28    4.0200830318327e-06
  29    -0.0030845116715977
  30    0.00088072356363319
  31    -5.5989169059807e-05
  32    -1.1081527364465e-05
  33    0.00032857086166967
  34    0.00012523735981828
  35    -0.00013019673723927
  36    -0.00060723948581721
  37    0.0004490743768835
  38    -0.0010577262120951
  39    -0.00055505741145308
  40    0.00043346078886143
  41    -0.0015739613472369
  42    -0.00065846380293821
  43    3.8355334102372e-05
  44    6.4009483663858e-05
  45    -0.00021495431621869
  46    0.00014264035706823
  47    0.00011767699688594
  48    0.00014638450932308
  49    -8.8640999358294e-05
  50    -0.00073812805018365
  51    0.00044301342414246
  52    0.0010601151476024
  53    -0.00054965979521768
  54    0.00043630230448337
  55      0.00159948972819
  56    -0.00068874888693304
  57    3.7822921440822e-05
  58    6.639196401481e-05
  59    0.0002228610231156
  60    0.0001464186951985
  61    -0.00012245324794287
  62    -2.1351956398764e-05
  63    1.1503651498082e-05
  64    4.4786547335527e-06
  65    0.00013524739054714
  66    3.8735395181656e-05
  67    6.213872567218e-05
  68    0.00027277151242186
  69    -2.9262986361658e-05
  70    -1.4569249223807e-05
  71    -1.8830624505706e-05
  72    -1.0384358101449e-06
  73     1.56598671153e-06
  74    2.1424208061357e-05
  75    2.8537668218985e-06
  76    2.8801678980808e-05
  77    0.0004893125673714
  78    7.000900974907e-05
  79    -3.0073793068495e-05
  80    2.0725401129874e-05
  81    1.9462558239328e-05
  82    0.0001548254529507
  83    -5.2594831332188e-05
  84    0.0003128599107465
  85    -4.2094025832581e-05
  86    -8.2166406390989e-05
  87    0.00031828220185989
  88    2.2895730700572e-05
  89    -2.1587494509065e-05
  90    8.6135889792082e-06
  91    7.6074553489082e-07
  92    1.0976162915975e-06
  93    1.5125270224937e-05
  94    3.6375594003721e-06
 Sym= A
 Ene=               1
 Spin= Alpha
 Occup=    1.00000
   1       1.0018688751063
   2    -0.00094047044963493
   3    -0.0096507050251628
   4    -0.0001488422307835
   5    -0.0023068155477552
   6    0.0020174404243912
   7    -0.0016556434156191
   8    -0.0011553046599977
   9    0.0010710973254259
  10    0.00015653617744594
  11    -7.2055123825939e-05
  12    0.00022977330877013
  13    -0.00015725872373974
  14    7.9616472430603e-05
  15    -0.00020956092586619
  16    -0.00087993438934829
  17    0.0028220435534248
  18    0.0010775315817697
  19    -4.2523071127387e-05
  20    0.0001027648072752
  21    -0.0012494862103779
  22    0.00015852357395217
  23    -0.00036975296028235
  24    8.8416077338317e-05
  25    -1.2946938656466e-05
  26    -3.9864650852943e-06
  27    -0.00020367642576053
  28    -2.4228701827424e-05
  29    2.8802820719784e-05
  30    0.00048931556101051
  31    -7.0008433903361e-05
  32    -3.4544288594561e-06
  33    -3.63599427113e-05
  34    -2.1352049459613e-05
  35    1.1504625481227e-05
  36    4.4803044853553e-06
  37    -0.00013525734973972
  38    7.2497393846459e-05
  39    -1.0260604500348e-05
  40    -0.00027278004569063
  41    -2.9972241740169e-05
  42    -1.3046323510051e-05
  43    -1.4478560579996e-05
  44    -2.8536627645778e-06
  45    5.7827848593687e-06
  46    2.3936838683742e-05
  47    -1.0387647322759e-06
  48    1.9462483248143e-05
  49    0.00015482670049842
  50    -5.2590954815148e-05
  51    -0.00031285897669979
  52    -9.0005247980511e-05
  53    2.0570177706733e-05
  54    -0.0003182831991944
  55    -1.8233760721706e-06
  56    3.1415868361677e-05
  57    -7.5912084360518e-06
  58    -2.2973228937102e-06
  59    -1.4603459302447e-05
  60    5.7691576651462e-06
  61    -2.9212085840965e-06
  62    0.00012523707052106
  63    -0.00013019329814348
  64    -0.00060723505188898
  65    -0.00044904490359531
  66    -0.0011050925303141
  67    -0.0004534660297997
  68    -0.00043343914423942
  69    -0.0015161361229444
  70    -0.00078246170425789
  71    0.00011543089574531
  72    -4.9001015105925e-05
  73    -0.00014027470050097
  74    0.00018713999555125
  75    -0.00012467501453066
  76    -0.0030845154513778
  77    0.00088072659743883
  78    5.5988252556411e-05
  79    0.0002445769654636
  80    -0.00021969057899687
  81    0.00014638440236517
  82    -8.8638829106325e-05
  83    -0.00073812443851732
  84    -0.00044300949872844
  85    0.00026035930145814
  86     0.001165405937307
  87    -0.0004362985011012
  88    0.0005005162349676
  89    0.0016679966398288
  90    -0.00025995182443927
  91    0.00013648070115179
  92    -6.565542797291e-05
  93    -2.5501875677095e-05
  94    2.7852139688449e-05
 Sym= A
 Ene=               2
 Spin= Alpha
 Occup=    1.00000
   1    9.1500158057614e-05
   2    0.00012448740231482
   3    -0.0019728437045283
   4    -0.00011715388864434
   5    -8.417452590586e-06
   6    -1.8519256649987e-06
   7    -0.00095682474015383
   8    0.00044002501705184
   9    0.00022002655260254
  10    -3.9432657108918e-06
  11    2.3624783942928e-05
  12    5.4648771072747e-05
  13    -7.7893636676466e-05
  14    2.5041034900078e-05
  15    -6.6562133647824e-05
  16    -1.6422402013763e-07
  17    0.0041585877398191
  18    0.00024335447841172
  19    -0.00044696972172536
  20    -0.00026328880782015
  21    -0.00043146867068988
  22     -0.00114213869102
  23    -0.0010353009929501
  24    -1.9289299961326e-06
  25    9.8753074879848e-06
  26    -6.9301599974139e-05
  27    4.1063554055368e-05
  28    4.8344441103136e-05
  29    -0.00025259661406045
  30    -0.0001394094034808
  31    5.2588701790609e-06
  32    0.00013514131013051
  33    0.00012568616004563
  34       1.0010202265381
  35    -0.0039699944167472
  36    -0.011136873820411
  37    -0.0011020748453161
  38    0.0023950456403112
  39    0.0014562650769687
  40    -2.1508836009262e-05
  41    -0.00018623665375334
  42    -2.5664169564426e-05
  43    1.4763266396167e-05
  44    4.7159865621349e-05
  45    -0.00010087682760254
  46    8.8550181238337e-05
  47    7.2943265374848e-05
  48    0.00010983260497534
  49    0.00020502225305302
  50    -0.00078200047593067
  51    4.5223615854624e-06
  52    -1.2098501988794e-05
  53    -4.7635557933794e-05
  54    7.2610084805981e-05
  55    0.00041155474445908
  56    0.00010677186659125
  57    2.1426717204372e-05
  58    -1.1609060277057e-05
  59    5.3345610378169e-06
  60    2.3597505678593e-05
  61    -1.3834797660566e-05
  62    -5.7809145314923e-05
  63    -0.00010823125378143
  64    0.00037344065577432
  65    -1.1269528086142e-05
  66    -4.2172632896279e-05
  67    -5.7373181762515e-06
  68    7.7956911911235e-05
  69    9.4391507198544e-05
  70    9.8190806691067e-06
  71    1.4797669633559e-05
  72    3.4180420722727e-06
  73    -5.7733830631966e-06
  74    -1.0703262763571e-05
  75    1.689503107979e-07
  76    0.00014052673471152
  77    -0.00011575945653414
  78    2.3240738936303e-05
  79    -4.8768359678996e-05
  80    -3.0553958688468e-05
  81    -2.1512365707938e-05
  82    -3.3039718507335e-05
  83    0.00016430741931766
  84    -1.3305150268766e-05
  85    4.4507583279588e-06
  86    -1.5072323360802e-05
  87    0.00015619789257771
  88    -6.3338990142404e-05
  89    -4.7237148986177e-05
  90    1.8579928329141e-06
  91    -4.6049321184292e-06
  92    1.5299550080885e-05
  93    -4.0552292970682e-06
  94    -1.4028048197462e-06
 Sym= A
 Ene=               3
 Spin= Alpha
 Occup=    1.00000
   1    -6.6510259091764e-05
   2    4.4427925682456e-08
   3    0.0041587328345254
   4    -0.00024343983759127
   5    -0.00048925020609945
   6    -0.00017321413245475
   7    0.00043153421839119
   8    -0.0015271999604479
   9    -0.00020944073172004
  10    3.7993250890652e-05
  11    -3.0703943105197e-05
  12    -3.065231094782e-05
  13    6.4107378735202e-05
  14    -3.8676639764836e-05
  15    9.1505387992577e-05
  16    0.00012447552084388
  17    -0.0019730041086172
  18    0.00011719930901295
  19    -6.8519702177802e-06
  20    -5.2624921377119e-06
  21    0.00095690420716347
  22    0.00045134771297962
  23    0.0001956572581034
  24    -7.4937469710397e-06
  25    -3.9923148127633e-06
  26    5.1206444550568e-05
  27    -7.9946408391951e-05
  28    -3.4176148778323e-05
  29    0.00014053652095135
  30    -0.00011574338744545
  31    -2.3237113315997e-05
  32    -5.4752540607384e-05
  33    -1.7718889408924e-05
  34    -5.7807277330362e-05
  35    -0.000108228674566
  36    0.00037343506179492
  37    1.1259244744955e-05
  38    -3.1514169050872e-05
  39    -2.8633740754868e-05
  40    -7.7961223595431e-05
  41    6.8201156744768e-05
  42    6.5987043128374e-05
  43    1.2136004163248e-05
  44    2.0671443259835e-06
  45    -8.3526452164388e-06
  46    -1.2240947490245e-05
  47    -2.7272849766642e-06
  48    -2.1514533235363e-05
  49    -3.3036755233423e-05
  50    0.00016434620032758
  51    1.3289552169312e-05
  52    -8.6931997802688e-06
  53    1.3107913584351e-05
  54    -0.00015621642492184
  55    -7.6910053654867e-05
  56    -1.8146835558776e-05
  57    -1.0764862016532e-05
  58    -1.8844953537154e-06
  59    3.0690658568106e-06
  60    -1.1343928062705e-05
  61    4.4285615465314e-06
  62       1.0010201812398
  63    -0.0039727624345052
  64    -0.011140057819955
  65    0.0011029685849103
  66    0.0026559211116016
  67    0.00089958799354867
  68    2.2123202443805e-05
  69    -0.00013878984536607
  70    -0.00012551408619206
  71    4.2797506118339e-05
  72    -2.55527034777e-05
  73    -7.3689958846599e-05
  74    0.00010473138142993
  75    -8.2994415802013e-05
  76    -0.00025255264180778
  77    -0.000139438433277
  78    -5.2716458716521e-06
  79    0.00018313995919381
  80    2.2724177174337e-05
  81    0.00010983373189071
  82    0.0002050115979296
  83    -0.00078204135104682
  84    -4.5271662673735e-06
  85    -4.4242845033371e-05
  86    2.1381465097203e-05
  87    -7.2620895127594e-05
  88    0.00034635537737622
  89    0.00024667026569791
  90    -1.3974847436344e-05
  91    3.1367542397038e-06
  92    -2.8963930753787e-05
  93    3.1561138211333e-06
  94    1.7784438893155e-05
 Sym= A
 Ene=               4
 Spin= Alpha
 Occup=    1.00000
   1    9.7608625287081e-05
   2    0.00015054283161689
   3    -0.0017741457926692
   4    -0.00014673329239394
   5    4.8893293677073e-05
   6    -3.6368442117001e-05
   7    -0.00081057086880235
   8    -0.00018996728872763
   9    0.00027113411856512
  10    5.5817655631203e-06
  11    4.5481637780073e-05
  12    -8.8551297699493e-05
  13    -8.8099236228501e-05
  14    -3.4307329016743e-05
  15    -4.6253416182319e-05
  16    3.7652523419591e-05
  17    0.0038880413839389
  18    0.00024450110322191
  19    0.00044499706191451
  20    -0.00026570611464804
  21    -0.00035105698505579
  22    0.0010684722102366
  23    -0.00099675987668743
  24    8.1414753866578e-06
  25    2.4295343019376e-05
  26    5.8065716012855e-05
  27    3.8191150967313e-05
  28    -3.6573069922761e-05
  29    -0.00024587906141801
  30    -0.00014137013294915
  31    6.2915666068207e-06
  32    -0.00013002948111867
  33    0.00012733122661576
  34    0.0001065307811262
  35    0.00019812860550998
  36    -0.00075264784859414
  37    3.0353616745768e-06
  38    9.152098146574e-06
  39    -4.6573191887447e-05
  40    7.0131474678932e-05
  41    -0.00038951832770079
  42    0.00010596818875236
  43    2.0947967591427e-05
  44    -1.1806939567204e-05
  45    -4.1484547845634e-06
  46    2.0513878834169e-05
  47    1.3196758469282e-05
  48       1.0010136310138
  49    -0.0040350176681347
  50    -0.011142103893502
  51    -0.0011476705479935
  52    -0.0024251146944913
  53    0.0014149263644114
  54    -2.6220949374876e-05
  55    0.00010324299503998
  56    -4.0250959351463e-05
  57    1.4618521128852e-05
  58    4.6230175612508e-05
  59    0.00010144380535087
  60    8.5761150529131e-05
  61    -6.5943997043268e-05
  62    -2.0526288571326e-05
  63    -3.3037580544324e-05
  64    0.00017949803749952
  65    2.1459214723084e-06
  66    3.8457078917738e-06
  67    9.2488046541741e-06
  68    8.9354399779213e-05
  69    7.0976727380318e-05
  70    -1.4075606592683e-05
  71    -5.9693395639676e-06
  72    8.7159802331959e-07
  73    -1.1057783824263e-05
  74    -1.2687775938646e-05
  75    3.9478095697753e-07
  76    8.2699791564476e-05
  77    3.8066125410827e-06
  78    -4.3124438967666e-05
  79    1.7040155047176e-06
  80    -2.3435329464368e-05
  81    -2.4517659061525e-06
  82    3.2242578378067e-06
  83    9.7552820452851e-05
  84    8.1343638726713e-06
  85    1.3532779384484e-06
  86    -1.3268035222209e-05
  87    7.4917846777395e-05
  88    -1.0075414605834e-05
  89    -4.6621096329356e-05
  90    1.3967862813669e-05
  91    -1.5374863587778e-06
  92    -7.346490862043e-06
  93    -2.4199051542338e-06
  94    -3.3448338496468e-06
 Sym= A
 Ene=               5
 Spin= Alpha
 Occup=    1.00000
   1    -4.6228646577469e-05
   2    3.7763908677129e-05
   3    0.0038881322670917
   4    -0.00024453638115463
   5    8.2522094642089e-05
   6    0.00051184452985546
   7    0.00035113024087505
   8    -7.6752735047665e-05
   9    0.0014591757198369
  10    -6.7937230124741e-05
  11    4.3679152053999e-05
  12    -1.5681794250905e-05
  13    -5.7601669005284e-06
  14    4.9071058516603e-06
  15    9.760738527866e-05
  16    0.00015050183964133
  17    -0.0017742742377735
  18    0.00014678779667218
  19    3.5710828508074e-06
  20    6.0835555000714e-05
  21    0.00081064429085522
  22    8.5588117269851e-05
  23    -0.00031975073526283
  24    0.00012096688270454
  25    5.550890799683e-05
  26    2.3244837254292e-05
  27    -2.1484751888514e-05
  28    -1.2789749397435e-05
  29    8.2682161322205e-05
  30    3.7759679282459e-06
  31    4.3121909437453e-05
  32    -1.6857057812381e-05
  33    1.6374003415667e-05
  34    -2.0526830253876e-05
  35    -3.3031587274838e-05
  36    0.00017952558733505
  37    -2.1565715563374e-06
  38    9.5691446969167e-06
  39    -2.9941261717304e-06
  40    -8.9367516775418e-05
  41    3.4857326553855e-05
  42    6.3418582057858e-05
  43    1.5164196415126e-05
  44    2.5834306735864e-07
  45    9.4183487217379e-06
  46    -4.8750068704167e-07
  47    -9.2034843085815e-07
  48    -2.45342182052e-06
  49    3.2260876312878e-06
  50    9.7583683461997e-05
  51    -8.1430767355734e-06
  52    -9.3027622205132e-06
  53    9.5683184767902e-06
  54    -7.4931176840866e-05
  55    -4.220505305428e-05
  56    2.2249252462853e-05
  57    9.1683796679464e-06
  58    1.5743000525429e-06
  59    -1.1996891767464e-05
  60    -5.1916632388771e-06
  61    3.3268937887087e-06
  62    0.00010653106976323
  63    0.00019813048897714
  64    -0.00075264966236797
  65    -3.0449035244446e-06
  66    -2.9789314037139e-05
  67    3.694132123437e-05
  68    -7.0142899467473e-05
  69    -0.00016920087899541
  70    -0.00036650654104762
  71    -4.3771648467185e-06
  72    -1.7697364209611e-05
  73    -2.8685531436245e-05
  74    5.8909813779289e-06
  75    5.611128370356e-07
  76    -0.00024584063443426
  77    -0.00014136789601861
  78    -6.2993265075817e-06
  79    1.3965561040567e-05
  80    -0.00018144740131443
  81       1.0010136041973
  82    -0.0040365362622322
  83    -0.011143843367442
  84    0.0011486974419038
  85    -0.00047525468253757
  86    -0.0027676661598319
  87    2.6926380457479e-05
  88    3.5306675783407e-05
  89    0.00010467055847432
  90    -0.00012834938489047
  91    8.0210372189754e-05
  92    -3.7075170962826e-05
  93    3.2235341908102e-06
  94    6.9686801263162e-06
 Sym= A
 Ene=               6
 Spin= Alpha
 Occup=    1.00000
   1    -0.0012979725399974
   2    -0.012531457814605
   3    -0.023176468619388
   4     0.018336992357765
   5     0.039931456933677
   6    0.0088270455831449
   7     0.011917733511807
   8     0.044801546387188
   9     0.012641649674931
  10    0.00057615819594571
  11     0.018433528142135
  12     0.033622754769617
  13    -0.014865103361805
  14    -0.0042470344095638
  15    -0.0024403871048611
  16    -0.017855022436857
  17     -0.01817798361762
  18     0.017318929081225
  19    0.0019855780089792
  20    -0.0028865334227574
  21    -0.0020658328447495
  22    0.0062248499329332
  23    0.0007494567809805
  24    0.00025838835920716
  25    0.0003877322156782
  26    0.00074616643527667
  27    -0.00025888686753336
  28    -0.00066607781266639
  29    -0.0078592783484004
  30    0.0090705444158149
  31    -0.0014055328193269
  32    0.00094867261445062
  33    0.0015256276479321
  34    -0.0010773838394188
  35    0.0012321155856222
  36     0.014352068797706
  37    -0.0056711510516095
  38    0.0047056017757665
  39    0.0038424225234974
  40    -0.0079107916691493
  41    0.0055449566299305
  42    0.0045266682674793
  43    -6.3081644822303e-05
  44    3.7405147033875e-08
  45    0.00013742633623004
  46    -0.00021484731989189
  47    0.00010314728617637
  48    0.00087186125584791
  49    0.0024795390590808
  50    -0.0018614906763198
  51    -0.0015093998045363
  52    -0.002562083509615
  53    -0.0016238181897214
  54    0.0024276054170562
  55    -0.0029217364646205
  56    -0.0020063418317237
  57    6.6566624086579e-05
  58    0.00012436408767683
  59    6.8970791858245e-05
  60    -0.00034456453657609
  61    -0.00041910744119179
  62    -0.0018346632093287
  63     0.014854096139238
  64     0.052819798774804
  65    0.0038603931235273
  66     0.031290341334509
  67     0.025231986728482
  68    0.0053085113996854
  69     0.030628221907851
  70     0.024667594898882
  71    -0.00046287347257371
  72    0.00068312453369168
  73    0.00022998092286804
  74    6.5919758361819e-05
  75    -0.00023929273827759
  76    -0.016445983081017
  77    -0.014435722907243
  78    0.00078078994167568
  79    -0.0010881220844703
  80    -0.00064276442220463
  81    -0.00070571143888361
  82    -0.001477059960424
  83      0.00135750155828
  84      0.33731423976164
  85      0.56935857004893
  86     0.029899757586174
  87      0.23471785475631
  88      0.39345287643388
  89     0.019141049888307
  90    -0.0014451150010698
  91    -0.0069072144832293
  92    -0.011960619857428
  93    0.0042068501822887
  94    0.0040483645174196
 Sym= A
 Ene=               7
 Spin= Alpha
 Occup=    1.00000
   1    0.0020302378024367
   2     0.018428312830074
   3     0.035900290521942
   4     0.031141743122776
   5    -0.0028611376293237
   6    0.0012506937984082
   7     0.026704642159756
   8    0.0029529723804307
   9     0.008864668428852
  10    9.0811814575832e-05
  11    -0.0015661924275004
  12    -0.00040960705108996
  13    -0.00049926849498163
  14    -0.0011374848994414
  15      0.00202244860207
  16     0.012573188662973
  17    0.0030918765542229
  18     0.023881564158692
  19     0.031561358825222
  20     -0.02111875145111
  21     0.032964877226616
  22     0.030492132450334
  23    -0.027160709407395
  24      0.01398096285208
  25    -0.017852718292441
  26    0.0074867787286206
  27     0.029217362166596
  28    -0.018830432112558
  29    0.0058037389282188
  30    0.0013282882334558
  31    0.00024920681387586
  32    -7.9074128472759e-05
  33    0.00033484743490125
  34    0.00065226077751969
  35    -0.0057030234861153
  36    -0.012632363866476
  37      0.46937986455209
  38      0.36820638445886
  39     -0.29259553958989
  40      0.32402633459731
  41      0.25053454731953
  42     -0.20278344181969
  43    -0.0059266668544373
  44    0.0077796129981181
  45    -0.0012644425155665
  46    -0.010045546742684
  47    0.0057843937324791
  48    0.0012914579731511
  49    -0.014850376803536
  50    -0.047447555470238
  51     0.002490435798142
  52     0.036862653584279
  53    -0.0081654492095789
  54    0.0011111831622172
  55     0.036694371810466
  56    -0.006634467436931
  57    0.00011783012973108
  58    -0.00067091673923755
  59    0.00021794223162181
  60    -0.00013899050164605
  61    -0.00050429633308073
  62    0.00097624182694554
  63    0.0085133694385021
  64    0.0092699858668277
  65     0.013335589758171
  66    -0.00073290467052743
  67    0.00041078511216421
  68    0.0049581389501594
  69    0.0039111445573387
  70    -0.00067850481787694
  71    0.0006021382709258
  72    0.00033696824754732
  73    0.00018390910163707
  74    -0.0014834655537427
  75    0.0010562185296347
  76    -0.0078469695080281
  77    -0.0080709774318976
  78    0.00029962755920072
  79    4.3220403688334e-05
  80    -0.0011776378180933
  81    -0.00034278567081022
  82    -0.0020255133451109
  83    -0.0033696936224009
  84    -0.0055859905639943
  85    -0.0008122984154404
  86    0.0018503854440916
  87    -0.0041868366488201
  88    -0.0015435882576959
  89    0.0022978392605888
  90    -0.00040119172601141
  91    -0.00060863559890118
  92    7.4054661962436e-05
  93    0.00033957691297996
  94    -6.0613579893071e-05
 Sym= A
 Ene=               8
 Spin= Alpha
 Occup=    1.00000
   1    0.00092288775993149
   2     0.026967053964525
   3      0.08451786766291
   4     0.033419391805324
   5    0.0060171337630139
   6    -0.0059465794924318
   7     0.015708225505275
   8    -0.0052393344001493
   9    -0.00044024459990027
  10    0.00020074307201604
  11    -0.0011840316227861
  12    0.00098215532524479
  13    0.00074757863173876
  14    0.00098350263087494
  15    0.0028817675165766
  16    0.0053189238484301
  17    -0.012251005664027
  18     0.011753484975175
  19    0.0045497022440571
  20    0.0091920795274636
  21     0.034520383562985
  22      0.01798307766698
  23      0.01385816830329
  24    -0.023443584546725
  25    -0.0095152088073493
  26     0.017465231708575
  27     0.010026520369609
  28     0.025957199121191
  29    -0.040170143957045
  30    -0.044679771750547
  31    -0.0020031384737391
  32    -0.0028548590761584
  33    -7.5302651942163e-05