[Molden Format]
made by pyscf v[2.0.1]
[Atoms] (AU)
C   1   6     0.00000000000000     0.00000000000000     0.00000000000000
C   2   6     2.85272299873892     0.00000000000000     0.00000000000000
H   3   1     3.62066923017674     0.00000000000000     1.90331545357504
F   4   9     3.65943188126013    -2.04308229183900    -1.24074875274501
F   5   9     3.65943188126013     2.04308229183900    -1.24074875274501
F   6   9    -0.80670888252121    -0.05297879367154    -2.38973554312721
H   7   1    -0.76794623143782     1.64831953421149     0.95165772678752
F   8   9    -0.80670888252121    -2.09606108551054     1.14898679038220
[GTO]
1 0
 s    8 1.00
                  6665  0.00069158396281299
                  1000  0.0053257961529341
                   228   0.027060721042034
                 64.71    0.10165684614077
                 21.06     0.2745748236174
                 7.495    0.44829431892377
                 2.797    0.28490261071525
                0.5215   0.015194859206082
 s    8 1.00
                  6665  -0.00029326965268655
                  1000  -0.0023180354739745
                   228  -0.011499786038565
                 64.71  -0.046826727009787
                 21.06   -0.12846616875047
                 7.495   -0.30126627246289
                 2.797   -0.25563070233011
                0.5215      1.093793361012
 s    1 1.00
                0.1596                   1
 p    3 1.00
                 9.439   0.056979251590039
                 2.002    0.31320721150073
                0.5456    0.76037674173753
 p    1 1.00
                0.1517                   1
 d    1 1.00
                  0.55                   1

2 0
 s    8 1.00
                  6665  0.00069158396281299
                  1000  0.0053257961529341
                   228   0.027060721042034
                 64.71    0.10165684614077
                 21.06     0.2745748236174
                 7.495    0.44829431892377
                 2.797    0.28490261071525
                0.5215   0.015194859206082
 s    8 1.00
                  6665  -0.00029326965268655
                  1000  -0.0023180354739745
                   228  -0.011499786038565
                 64.71  -0.046826727009787
                 21.06   -0.12846616875047
                 7.495   -0.30126627246289
                 2.797   -0.25563070233011
                0.5215      1.093793361012
 s    1 1.00
                0.1596                   1
 p    3 1.00
                 9.439   0.056979251590039
                 2.002    0.31320721150073
                0.5456    0.76037674173753
 p    1 1.00
                0.1517                   1
 d    1 1.00
                  0.55                   1

3 0
 s    3 1.00
                 13.01   0.033498726389998
                 1.962    0.23480080117413
                0.4446     0.8136829578829
 s    1 1.00
                 0.122                   1
 p    1 1.00
                 0.727                   1

4 0
 s    8 1.00
                 14710  0.00072067370873197
                  2207  0.0055504869689163
                 502.8   0.028254207662589
                 142.6    0.10639582836653
                 46.47    0.28668420124307
                  16.7    0.44843796582416
                 6.356    0.26464118141135
                 1.316   0.015326060993048
 s    8 1.00
                 14710  -0.00032119389049893
                  2207  -0.0025461915683188
                 502.8  -0.012643359507821
                 142.6   -0.05195749170489
                 46.47   -0.14344713812646
                  16.7   -0.33243762329603
                 6.356   -0.21865906750347
                 1.316     1.0955904138622
 s    1 1.00
                0.3897                   1
 p    3 1.00
                 22.67   0.064834021493887
                 4.977    0.34053535983101
                 1.347    0.73464640679382
 p    1 1.00
                0.3471                   1
 d    1 1.00
                  1.64                   1

5 0
 s    8 1.00
                 14710  0.00072067370873197
                  2207  0.0055504869689163
                 502.8   0.028254207662589
                 142.6    0.10639582836653
                 46.47    0.28668420124307
                  16.7    0.44843796582416
                 6.356    0.26464118141135
                 1.316   0.015326060993048
 s    8 1.00
                 14710  -0.00032119389049893
                  2207  -0.0025461915683188
                 502.8  -0.012643359507821
                 142.6   -0.05195749170489
                 46.47   -0.14344713812646
                  16.7   -0.33243762329603
                 6.356   -0.21865906750347
                 1.316     1.0955904138622
 s    1 1.00
                0.3897                   1
 p    3 1.00
                 22.67   0.064834021493887
                 4.977    0.34053535983101
                 1.347    0.73464640679382
 p    1 1.00
                0.3471                   1
 d    1 1.00
                  1.64                   1

6 0
 s    8 1.00
                 14710  0.00072067370873197
                  2207  0.0055504869689163
                 502.8   0.028254207662589
                 142.6    0.10639582836653
                 46.47    0.28668420124307
                  16.7    0.44843796582416
                 6.356    0.26464118141135
                 1.316   0.015326060993048
 s    8 1.00
                 14710  -0.00032119389049893
                  2207  -0.0025461915683188
                 502.8  -0.012643359507821
                 142.6   -0.05195749170489
                 46.47   -0.14344713812646
                  16.7   -0.33243762329603
                 6.356   -0.21865906750347
                 1.316     1.0955904138622
 s    1 1.00
                0.3897                   1
 p    3 1.00
                 22.67   0.064834021493887
                 4.977    0.34053535983101
                 1.347    0.73464640679382
 p    1 1.00
                0.3471                   1
 d    1 1.00
                  1.64                   1

7 0
 s    3 1.00
                 13.01   0.033498726389998
                 1.962    0.23480080117413
                0.4446     0.8136829578829
 s    1 1.00
                 0.122                   1
 p    1 1.00
                 0.727                   1

8 0
 s    8 1.00
                 14710  0.00072067370873197
                  2207  0.0055504869689163
                 502.8   0.028254207662589
                 142.6    0.10639582836653
                 46.47    0.28668420124307
                  16.7    0.44843796582416
                 6.356    0.26464118141135
                 1.316   0.015326060993048
 s    8 1.00
                 14710  -0.00032119389049893
                  2207  -0.0025461915683188
                 502.8  -0.012643359507821
                 142.6   -0.05195749170489
                 46.47   -0.14344713812646
                  16.7   -0.33243762329603
                 6.356   -0.21865906750347
                 1.316     1.0955904138622
 s    1 1.00
                0.3897                   1
 p    3 1.00
                 22.67   0.064834021493887
                 4.977    0.34053535983101
                 1.347    0.73464640679382
 p    1 1.00
                0.3471                   1
 d    1 1.00
                  1.64                   1

[5d]
[7f]
[9g]

[MO]
 Sym= A
 Ene=               0
 Spin= Alpha
 Occup=    1.00000
   1    -0.0002066644058906
   2    -0.00084160096881209
   3    0.0028908755977888
   4    -0.0010870076784331
   5    8.6742919297224e-05
   6    -3.6808004996502e-05
   7    0.0012062345241014
   8    -0.00016927255889888
   9    -0.00011094401065436
  10    9.3410213722332e-05
  11    3.2230617926001e-05
  12    -2.4527975779459e-05
  13    -0.00017502409027897
  14    3.1461364829378e-05
  15       1.0018702474838
  16    -0.0009078510268829
  17    -0.0095500305651331
  18    0.00017319478147336
  19    4.7291324890172e-05
  20    -0.0029213804346786
  21     0.001701860890319
  22    2.4443554748979e-05
  23    -0.0014000873424214
  24    -8.2626906671361e-05
  25    -0.000110673022594
  26    -9.7768045586517e-06
  27    -0.00029950599087612
  28    1.0602460217337e-07
  29    -0.0031242249171579
  30    0.00076339898221607
  31    -4.0990143290793e-05
  32    -1.4412054700137e-05
  33    0.00035619226764516
  34    0.00012326953740138
  35    -0.00013581215636148
  36    -0.00060783702251403
  37    0.00044354365059977
  38    -0.001065264503763
  39    -0.00056229473887134
  40    0.00042935228190342
  41    -0.0015683643607873
  42    -0.00068474563660743
  43    3.7475018360906e-05
  44    6.2306742267703e-05
  45     -0.00021648509244
  46    0.00014015929286083
  47    0.00011656464615896
  48    0.00013160593429027
  49    -0.0001194268392985
  50    -0.00065700895707424
  51    0.00044890810047623
  52    0.0010652863130484
  53    -0.00055029404215779
  54    0.00042238515202879
  55    0.0015820593195027
  56    -0.00070715969110962
  57    3.5257736644702e-05
  58    6.4561389442304e-05
  59    0.00022131518800376
  60    0.00014421822363373
  61    -0.00011938176321081
  62    4.741433762097e-06
  63    2.8936809193666e-05
  64    -0.00020772516935165
  65    0.00011063378284039
  66    -2.8583830421083e-05
  67    6.0497144074366e-06
  68    0.0001741715921888
  69    -2.1414953779302e-06
  70    -0.00011052553745293
  71    -1.5339905638739e-05
  72    3.3406465136707e-06
  73    4.2929303364165e-06
  74    2.4516961399795e-05
  75    7.5932402942364e-07
  76    0.00014892362318581
  77    0.00055848252559058
  78    6.4826506006548e-05
  79    -5.5873346168277e-05
  80    -2.8562664913862e-05
  81    -1.487352550049e-05
  82    5.3724981768809e-05
  83    4.0626538055909e-05
  84    0.00021685489983515
  85    8.4624927087638e-05
  86    -4.6683090731549e-06
  87    0.00035133974491427
  88    -6.4987140084527e-06
  89    4.3246265771845e-05
  90    -2.0746648445909e-05
  91    -2.7017658653162e-06
  92    -5.1309999478882e-06
  93    1.2397156649494e-05
  94    -1.6923019322847e-06
 Sym= A
 Ene=               1
 Spin= Alpha
 Occup=    1.00000
   1        1.001870247394
   2    -0.00090785468927471
   3    -0.0095500344969034
   4    -0.00017321002548367
   5    -0.0025536377688362
   6    -0.0014197346179362
   7    -0.0017018634423272
   8    -0.0012247327839234
   9    -0.00067887491036056
  10    0.00019753180002339
  11    5.5244625392012e-05
  12    -0.00019654866683892
  13    -0.0001377591871754
  14    9.5898553111783e-05
  15    -0.00020666434360149
  16    -0.00084161162575887
  17    0.0028908673999197
  18    0.0010870227317152
  19    -7.5248274743023e-05
  20    5.6719057194442e-05
  21    -0.0012062288437648
  22    -1.1444984605203e-05
  23    -0.00020206640075244
  24    8.3609460714277e-05
  25    -4.3361748151368e-05
  26    -1.7994015187157e-05
  27    -0.00018068367214567
  28    -1.21817627672e-05
  29    0.00014892410502374
  30    0.00055848464785146
  31    -6.4826214915908e-05
  32    3.2007020390845e-06
  33    -6.2668996661377e-05
  34    4.7399699228958e-06
  35    2.8936549373252e-05
  36    -0.00020772481932968
  37    -0.00011063151241979
  38    1.9530066556388e-05
  39    -2.172620188661e-05
  40    -0.00017417132580688
  41    -9.4647797080822e-05
  42    -5.7115129555555e-05
  43    -1.0786922462246e-05
  44    -2.3278042030061e-06
  45    1.2577089174684e-06
  46    2.7145535083145e-05
  47    -2.5131752605475e-06
  48    -1.4874425957034e-05
  49    5.3725488600596e-05
  50    4.0628360508464e-05
  51    -0.00021685308653944
  52    -4.6353825059141e-05
  53    7.0956728928939e-05
  54    -0.00035133962084752
  55    4.0702605968167e-05
  56    1.599767938792e-05
  57    -9.3069671007353e-06
  58    2.8165779777682e-06
  59    -1.2757378800839e-05
  60    1.9001744083248e-05
  61    1.4934017541695e-06
  62    0.00012327487459965
  63    -0.00013581370227325
  64    -0.00060783831882554
  65    -0.0004435325093273
  66    4.5665998630958e-05
  67     -0.00120369077378
  68    -0.00042934374979241
  69    0.00019117171335724
  70    -0.0017006144014496
  71    -0.0002580841711577
  72    -0.00013210121286158
  73    -1.9445635315074e-05
  74    -3.0481983305394e-05
  75    4.3230440574051e-06
  76    -0.0031242217182686
  77    0.00076340195857133
  78    4.0989785671981e-05
  79    0.00031567737243667
  80    0.00016561486167518
  81    0.00013161067414204
  82    -0.00011942726907033
  83    -0.00065700907077579
  84    -0.00044889287529081
  85    -0.0010092098394181
  86    0.00064741507488333
  87    -0.00042237382353374
  88    -0.001403446820551
  89    0.0010165217744253
  90    6.7906660641528e-05
  91    7.1106825245287e-05
  92    0.00019954906865476
  93    0.00016306803254474
  94    -0.00011560250083048
 Sym= A
 Ene=               2
 Spin= Alpha
 Occup=    1.00000
   1    -3.5529136754216e-05
   2    7.8200749428233e-05
   3    0.0038031110370922
   4    -0.00027536148648296
   5    -0.00048705116718669
   6    0.00027817445440938
   7    0.00033819945495688
   8    -0.0015173260610938
   9    0.00039897236828303
  10    1.4331664097016e-05
  11    6.7219744882955e-06
  12    4.3127811087803e-05
  13    6.208512267237e-05
  14    -1.0752179092894e-05
  15    5.7058322637084e-05
  16    7.8893875112757e-05
  17    -0.0014702021533274
  18    0.00013825124672501
  19    -3.3646452642711e-05
  20    1.5528596578992e-06
  21    0.00078955593700387
  22    0.00031113625688217
  23    8.5643445575459e-05
  24    2.9345795730466e-05
  25    -1.6843268857744e-06
  26    -3.7372603555348e-05
  27    -0.00010197151315835
  28    -2.0590061013407e-05
  29    6.9049984408326e-05
  30    -0.00019284829751346
  31    4.4348396907014e-05
  32    1.2022211598696e-06
  33    -1.3334821155159e-06
  34    1.5250100129046e-05
  35    3.2635788775222e-05
  36    6.5633351458553e-05
  37    -4.4976110783249e-05
  38    -1.4816512741365e-05
  39    -8.5088503938398e-06
  40    0.00011809987112012
  41    4.0396274256778e-05
  42    1.2211661670858e-05
  43    1.0085437208662e-05
  44    1.1302407931482e-05
  45    -6.8945742183477e-06
  46    -2.2041582075441e-05
  47    3.3565490616718e-07
  48    -3.009748930319e-05
  49    -5.1972262826788e-05
  50    0.00015118950477049
  51    2.5635467915671e-05
  52    -1.9459113735146e-06
  53    5.7081016221475e-06
  54    -0.00017025333533822
  55    -4.0660680104367e-05
  56    -3.0655499426084e-06
  57    -1.6101412122943e-06
  58    2.0464260886063e-06
  59    3.987270095436e-06
  60    -1.7613575314338e-07
  61    -5.1729955408357e-06
  62    0.00010363959830749
  63    0.00019048146999302
  64    -0.0007473651726297
  65    -6.440273568168e-06
  66    -4.6784713063798e-05
  67    -2.0876259673091e-05
  68    -5.3003102595466e-05
  69    0.00031394305013729
  70    -0.00028751355895748
  71    -1.7310335068757e-05
  72    -5.5447036773728e-06
  73    2.4567459831185e-05
  74    -2.2289499674271e-06
  75    1.7517680756033e-05
  76    -0.00021732989563036
  77    -8.7660260796445e-05
  78    1.0980844563675e-06
  79    0.00016666009356017
  80    -6.0275094227518e-05
  81       1.0010174883451
  82    -0.0044136555538984
  83    -0.011674781858825
  84    0.0010335718075952
  85    0.0027077989586064
  86    -0.001467532451168
  87    -7.4621995101094e-05
  88    5.971894045666e-05
  89    3.4842688424355e-05
  90    1.8541836238519e-05
  91    3.6666541905527e-05
  92    9.9382603952195e-05
  93    7.9991398241575e-05
  94    -7.716709059047e-05
 Sym= A
 Ene=               3
 Spin= Alpha
 Occup=    1.00000
   1    5.7072527152182e-05
   2    7.890643550363e-05
   3    -0.0014703180106838
   4    -0.0001382771390275
   5    1.8205458362709e-05
   6    -2.8385503141134e-05
   7    -0.00078965775431213
   8    -8.1373720756423e-05
   9    0.00031227468043096
  10    3.4528275243242e-05
  11    1.8648160612563e-05
  12    -4.0834959342012e-05
  13    -9.8978480787401e-05
  14    -8.8128168519649e-06
  15    -3.5429917278527e-05
  16    7.8632724124827e-05
  17    0.0038033105174881
  18    0.00027559550106704
  19    0.00048492453279432
  20    -0.00028304061388814
  21    -0.0003382204477371
  22    0.0011041835987845
  23    -0.0011144968555847
  24    -9.7718706989726e-06
  25    5.955813257488e-06
  26    5.9206752813456e-05
  27    4.8193300220796e-05
  28    -1.1191072657146e-05
  29    -0.00021737786109341
  30    -8.7838983732098e-05
  31    -1.0784552030959e-06
  32    -0.00013550967155557
  33    0.00011419160043134
  34    0.00010363833210093
  35    0.00019047077089872
  36    -0.00074738425322985
  37    6.4373381977638e-06
  38    5.2639359219079e-06
  39    -5.0947659001546e-05
  40    5.2993817181434e-05
  41    -0.00040601681609568
  42    0.00012812929229362
  43    2.2031376392279e-05
  44    -1.2395247899639e-05
  45    -1.6637216248861e-06
  46    2.0481646843806e-05
  47    1.3561097754282e-05
  48       1.0010174026053
  49    -0.0044182567133457
  50    -0.011680124398511
  51    -0.0010340536461035
  52    -0.0026269678906835
  53    0.0016125653287968
  54    7.4305144052152e-05
  55    -1.1524455624403e-06
  56    7.0020222826929e-05
  57    2.0258764568814e-05
  58    4.8482801165355e-05
  59    9.8193028116777e-05
  60    8.0954801078271e-05
  61    -7.031667377171e-05
  62    1.5247719660857e-05
  63    3.2631105162433e-05
  64    6.5652773730906e-05
  65    4.4977544205536e-05
  66    4.5583439213883e-08
  67    -1.7098941377272e-05
  68    -0.00011808617399147
  69    -9.6286271463065e-06
  70    4.1093002103506e-05
  71    7.8860266788406e-06
  72    -5.9414978915517e-06
  73    -5.4269334214066e-06
  74    -2.3311883906805e-05
  75    -9.6205548940842e-06
  76    6.9067772346689e-05
  77    -0.0001929025657868
  78    -4.4348852346656e-05
  79    -1.7527572927535e-06
  80    3.750510117073e-07
  81    -3.0094302171806e-05
  82    -5.1953868670083e-05
  83    0.00015120846023368
  84    -2.5608462988112e-05
  85    5.9315577768121e-06
  86    1.1628044775125e-06
  87    0.00017027689458452
  88    1.7681146439765e-05
  89    -3.6749754826736e-05
  90    3.3072043644217e-06
  91    3.4571219222558e-06
  92    7.104780801407e-07
  93    2.6617214425958e-06
  94    -4.3601183422222e-06
 Sym= A
 Ene=               4
 Spin= Alpha
 Occup=    1.00000
   1    -2.651295484716e-05
   2    8.9120134999185e-05
   3    0.0034606952383662
   4    -0.00030267354613411
   5    -8.202250878585e-06
   6    -0.00055810987886433
   7    0.00018000424300899
   8    -0.00033961698258308
   9    -0.0015314009002749
  10    -7.1378009035808e-05
  11    -1.8504939264279e-05
  12    -1.1605082608518e-05
  13    -3.0159945672213e-06
  14    2.5671992728865e-06
  15    4.6308546047515e-05
  16    6.6328922618995e-05
  17    -0.0012984482632241
  18    0.00016893236058726
  19    -5.6942058354985e-06
  20    -9.9446862125898e-06
  21    0.00039786660860611
  22    0.00011505613295462
  23    0.00036208832210675
  24    9.3775673466097e-05
  25    -8.704920018334e-06
  26    3.7506757670294e-06
  27    -4.6615101637621e-05
  28    -1.4785878643783e-05
  29    9.0651528445903e-06
  30    9.3445727646743e-05
  31    -1.1324028073959e-05
  32    -1.1706903754354e-05
  33    -1.2327524395473e-05
  34    1.1042303912321e-05
  35    2.3488626681377e-05
  36    8.6881907654815e-05
  37    -5.518619062076e-05
  38    -1.9480180401274e-05
  39    -9.6894531171976e-06
  40    0.00017009300883859
  41    5.9747527568753e-05
  42    1.0141306040035e-05
  43    1.6972083333888e-05
  44    -1.7883666017014e-06
  45    2.0081294730436e-07
  46    -1.9263092951639e-05
  47    1.2868011458932e-05
  48    1.3776941779655e-05
  49    3.0578232441976e-05
  50    5.0024464432095e-05
  51    -4.3172221540942e-05
  52    1.6387346163836e-05
  53    -6.1142402797579e-07
  54    0.00012090218664349
  55    -6.1492843406805e-05
  56    -5.8816300139236e-06
  57    1.1363566059684e-05
  58    -3.2156127014527e-06
  59    -3.0274435606377e-06
  60    -1.7979202296714e-05
  61    -1.3020821238727e-05
  62       1.0010140468607
  63    -0.0043928921186038
  64    -0.011619907794876
  65     0.001014611176162
  66    5.7543091569331e-05
  67    0.0030688319100469
  68    -6.8182127936955e-05
  69    4.4155360474235e-05
  70    2.0001122741115e-05
  71    -0.00012850820608826
  72    -8.7760515584601e-05
  73    -1.4557102366974e-06
  74    -7.7419690502437e-06
  75    -6.8017344256724e-06
  76    -0.00021830082429048
  77    -0.00013736810190477
  78    -1.0771481906145e-05
  79    3.0533817256032e-05
  80    0.00017819714411302
  81    0.0001023168838311
  82    0.00018753398574022
  83    -0.00071894549771868
  84    -1.7131625690582e-06
  85    -4.3051166813175e-05
  86    -2.6435028470614e-05
  87    -7.1433036460068e-05
  88    -8.5172432054116e-05
  89    0.00040566781348986
  90    -1.213733715738e-05
  91    1.7960569857847e-05
  92    2.6720278785503e-05
  93    -3.3352314369401e-06
  94    2.6213065746098e-06
 Sym= A
 Ene=               5
 Spin= Alpha
 Occup=    1.00000
   1     4.63350982265e-05
   2    6.6371422361149e-05
   3    -0.001298661273275
   4    -0.00016898306995717
   5    -5.7840234275632e-06
   6    -9.92589687315e-06
   7    -0.00039801299861372
   8    0.00025612013321895
   9    0.00028065466102017
  10    2.1358443967101e-05
  11    1.712271243372e-05
  12    5.2033376775437e-05
  13    -8.8418314255463e-05
  14    1.0371303817194e-07
  15    -2.6382529989152e-05
  16    8.972569047874e-05
  17    0.0034609764812875
  18    0.00030299603889109
  19    -0.00047996737641583
  20    -0.00028660962307596
  21    -0.00018003220514109
  22    -0.0011564988393625
  23    -0.0010597215307212
  24    2.1554043481292e-06
  25    7.0358695550001e-06
  26    -6.065690118422e-05
  27    3.946621304865e-05
  28    1.7295003260776e-05
  29    -0.00021838607134771
  30    -0.00013763283588139
  31    1.079639484563e-05
  32    0.00013903133351219
  33    0.00011553545121299
  34       1.0010139335911
  35    -0.0043988779740076
  36     -0.01162688253951
  37    -0.0010153563338868
  38    0.0026315614514536
  39    0.0015863830206093
  40    6.7678997696974e-05
  41    -2.9673087710408e-06
  42    4.9677634362362e-05
  43    1.9999602217666e-05
  44    4.9748881498143e-05
  45    -0.0001003992550328
  46    7.7961288027667e-05
  47    7.2573748569511e-05
  48    0.00010231374705709
  49    0.00018751535172892
  50    -0.00071894043432516
  51    1.7151992103142e-06
  52    -1.3149957368038e-06
  53    -5.0481015753133e-05
  54    7.1426807223329e-05
  55    0.00039395796401125
  56    0.00012909090137288
  57    2.3715502714704e-05
  58    -1.1245525569382e-05
  59    2.811954930943e-06
  60    1.7359788484412e-05
  61    -1.4244355318882e-05
  62    1.1040204720108e-05
  63    2.3487678687817e-05
  64    8.6898826369886e-05
  65    5.5195328476568e-05
  66    1.3340901088055e-06
  67    -2.1743469204845e-05
  68    -0.00017007080584253
  69    -2.1100415544888e-05
  70    5.6810139147793e-05
  71    1.0542920855959e-05
  72    -1.0249562117701e-05
  73    4.4881460233933e-06
  74    -2.2976187398264e-05
  75    7.9832354535805e-06
  76    9.1217567518407e-06
  77    9.346126656312e-05
  78    1.1318014955056e-05
  79    -4.8151795639997e-06
  80    -1.6294898450579e-05
  81    1.3770382235856e-05
  82    3.0567124047866e-05
  83    5.0085046301039e-05
  84    4.3180869076683e-05
  85    -8.7405495593293e-06
  86    1.3890363035468e-05
  87    -0.00012087860335359
  88    2.5662603930353e-05
  89    -5.6193280488883e-05
  90    7.9865205770965e-06
  91    1.2883938928568e-05
  92    -7.7750614561239e-07
  93    -1.9929427253912e-05
  94    -3.7258400008223e-06
 Sym= A
 Ene=               6
 Spin= Alpha
 Occup=    1.00000
   1    -0.0014494772527493
   2    -0.012088912590217
   3     -0.01163455750941
   4     0.020912853114553
   5     0.037217229878705
   6    -0.016565224261543
   7     0.021396031592101
   8     0.040447017322737
   9    -0.017204692047866
  10     0.013286571819732
  11    -0.021679983416125
  12    -0.030991886277429
  13     -0.01082240063897
  14    -0.0064941758277517
  15    -0.0025784044661137
  16    -0.016318744948733
  17    -0.022023686161147
  18     0.026854829282018
  19    -0.0016256808706459
  20    0.0020476538033697
  21     0.017058043899051
  22    -0.0094692377996714
  23    -0.012939524162053
  24    0.0013713908728158
  25    -0.00048130291146608
  26    0.00048763443200293
  27    0.00061503437732132
  28    -0.00048630542024233
  29      0.01045169992675
  30      0.01629884470809
  31    0.0015059733267423
  32    0.0001712109909524
  33    -0.00096552012641629
  34    0.00079988737723317
  35    0.0011162177088645
  36    -0.0077651061317211
  37    -0.0032752313549737
  38    -0.0021163803100885
  39    0.0014723456030334
  40    -0.0050676711778764
  41    -0.0038337644530221
  42    0.0010535635677044
  43    0.00024184953602596
  44    0.00033621408713544
  45    -5.5748781344137e-05
  46    -4.4709877057765e-06
  47    0.00016045307220101
  48    -0.00087917820797115
  49    -0.0054644086669981
  50    -0.0036327682209727
  51    0.0080912660697445
  52    0.0037710571938812
  53    0.0033263885442805
  54    0.0011216886036458
  55    0.0039949300343795
  56    0.00084132197654892
  57    -1.4190920825142e-05
  58    0.00081630817170774
  59    0.0001780851781635
  60    0.00058677849284564
  61    -0.00010769854453202
  62    -0.00063577140506735
  63    -0.0058291801623262
  64    -0.0028334407477921
  65      0.40969235603163
  66      0.49980012702901
  67     -0.15048404454299
  68      0.28405169071055
  69      0.34377471380099
  70     -0.10163921092675
  71    -0.0058573608640809
  72    0.0076975551798283
  73     0.010668499356512
  74    0.0025467267359839
  75    0.0044865300918217
  76    -0.0094072268746671
  77    -0.0084368562267893
  78    0.00060907850213015
  79    -0.00077674823422343
  80    0.00012164385071089
  81    -0.0013727538113919
  82     0.015307026219936
  83     0.049273983955669
  84    0.0033330593587966
  85     0.026108599154155
  86    -0.029056238996103
  87    0.0030202575501266
  88     0.024835736302154
  89       -0.028740034314
  90    -0.00031468056645832
  91    -0.00070955431088729
  92    -0.00019352471987604
  93    8.6840607406958e-05
  94    -0.00037125729994891
 Sym= A
 Ene=               7
 Spin= Alpha
 Occup=    1.00000
   1    -0.0019025364044033
   2    -0.0019288461815772
   3     0.020343850114272
   4     0.010203856438422
   5    -0.016808734278676
   6    -0.00054786716341781
   7     0.036281258578543
   8    -0.025196348612751
   9      0.01507724106271
  10     0.015036857826566
  11    -0.025367223578723
  12     0.027397942580208
  13    -0.012589450694954
  14    0.0053871453817799
  15    -0.001752254470748
  16    -0.020777471865741
  17    -0.060690412462193
  18     0.035563941865468
  19    0.0031536217874253
  20    0.0023970787020584
  21     0.035034223938771
  22    0.0079288933018182
  23    -0.023188622603306
  24    0.0018601509088006
  25    -0.0011816947578078
  26    7.5548330791323e-05
  27    -0.00018509584931464
  28    -0.00081465418863588
  29     0.010932348145206
  30     0.020148823541601
  31    0.0017715699034089
  32    4.4390327233565e-06
  33    -0.00087664487653079
  34    -0.00087157548909216
  35    -0.0044513558356964
  36    -0.0012611896662301
  37    0.0056077900227534
  38    -0.0021673846903567
  39    0.0053340529242124
  40    -0.0034674947227023
  41    -0.0028709442326411
  42     0.003219599085372
  43    1.2376685506639e-05
  44    0.0009302223151861
  45    -0.00019867683313172
  46    0.00059498406622822
  47    0.00017126387318667
  48    0.00064897314020008
  49    0.00032580648431329
  50    -0.0073426250306667
  51    -0.0018813813404055
  52     0.001321290563127
  53    0.0013650302158594
  54    -0.0056908643147096
  55     0.002587714739869
  56    0.0016284682949749
  57    0.00025101221904493
  58    0.00041478757195908
  59    5.132342225953e-05
  60    3.1832941407184e-05
  61    -0.00027919387751712
  62    -0.0010676798922789
  63    -0.001458909149094
  64    0.0099944899178428
  65      0.48075467312075
  66     -0.43903482321902
  67     -0.15248066332399
  68       0.3330947241507
  69     -0.30283835085705
  70     -0.10259265529464
  71    -0.0053546763918729
  72    0.0087759745505064
  73    -0.009117814854991
  74    0.0037327092935163
  75    -0.0030745414800463
  76      0.04151809999792
  77     0.046017766063437
  78    -0.0022762736381309
  79    0.0020440861728796
  80    -0.0023555631661705
  81    0.00088332874738522
  82    -0.0024541364070794
  83    -0.016694141288017
  84    -0.0043307346359544
  85    -0.0030720642315402
  86    0.0073943431167109
  87    -0.0071671583420709
  88    -0.0045349954668922
  89    0.0053785431625042
  90    0.00050777119995812
  91    -0.00041714641376895
  92    0.0004413994014819
  93    -0.00032339012586304
  94    0.00014472594128452
 Sym= A
 Ene=               8
 Spin= Alpha
 Occup=    1.00000
   1    0.0017525581075884
   2     0.020779258039211
   3     0.060692550974164
   4      0.03556673438213
   5    -0.00049945849071613
   6     -0.00392967132665
   7     0.035035939926908
   8     0.024047160806943
   9    0.0047293320363351
  10    5.567536567348e-05
  11    -0.001296449275003
  12    -0.0013528962988161
  13    0.0012911771209566
  14    -0.0006160929423541
  15    0.0019027851808324
  16    0.0019303736132997
  17    -0.020342268839919
  18     0.010206597151297
  19    -0.0079264438238839
  20     0.014827938973691
  21     0.036283665888074
  22    -0.025651470276498
  23     0.014279158175986
  24    -0.026843877452279
  25    -0.0080200330870124
  26    -0.019524132181376
  27    0.0057747940956343
  28    -0.024663944154744
  29    -0.041516947729124
  30    -0.046016910986964
  31    -0.0022761818587948
  32    0.0030619495780018
  33    -0.00059237722011384
  34    0.0010667879198797