[Molden Format]
made by pyscf v[2.0.1]
[Atoms] (AU)
C   1   6     0.00000000000000     0.00000000000000     0.00000000000000
C   2   6     2.85272299873892     0.00000000000000     0.00000000000000
H   3   1     3.62066923017674     0.00000000000000     1.90331545357504
F   4   9     3.65943188126013    -2.04308229183900    -1.24074875274501
F   5   9     3.65943188126013     2.04308229183900    -1.24074875274501
F   6   9    -0.80670888252121     1.49550828705447    -1.86469774548472
H   7   1    -0.76794623143782     0.65097222422570     1.78853148675225
F   8   9    -0.80670888252121    -2.34423041954446    -0.46714714892290
[GTO]
1 0
 s    8 1.00
                  6665  0.00069158396281299
                  1000  0.0053257961529341
                   228   0.027060721042034
                 64.71    0.10165684614077
                 21.06     0.2745748236174
                 7.495    0.44829431892377
                 2.797    0.28490261071525
                0.5215   0.015194859206082
 s    8 1.00
                  6665  -0.00029326965268655
                  1000  -0.0023180354739745
                   228  -0.011499786038565
                 64.71  -0.046826727009787
                 21.06   -0.12846616875047
                 7.495   -0.30126627246289
                 2.797   -0.25563070233011
                0.5215      1.093793361012
 s    1 1.00
                0.1596                   1
 p    3 1.00
                 9.439   0.056979251590039
                 2.002    0.31320721150073
                0.5456    0.76037674173753
 p    1 1.00
                0.1517                   1
 d    1 1.00
                  0.55                   1

2 0
 s    8 1.00
                  6665  0.00069158396281299
                  1000  0.0053257961529341
                   228   0.027060721042034
                 64.71    0.10165684614077
                 21.06     0.2745748236174
                 7.495    0.44829431892377
                 2.797    0.28490261071525
                0.5215   0.015194859206082
 s    8 1.00
                  6665  -0.00029326965268655
                  1000  -0.0023180354739745
                   228  -0.011499786038565
                 64.71  -0.046826727009787
                 21.06   -0.12846616875047
                 7.495   -0.30126627246289
                 2.797   -0.25563070233011
                0.5215      1.093793361012
 s    1 1.00
                0.1596                   1
 p    3 1.00
                 9.439   0.056979251590039
                 2.002    0.31320721150073
                0.5456    0.76037674173753
 p    1 1.00
                0.1517                   1
 d    1 1.00
                  0.55                   1

3 0
 s    3 1.00
                 13.01   0.033498726389998
                 1.962    0.23480080117413
                0.4446     0.8136829578829
 s    1 1.00
                 0.122                   1
 p    1 1.00
                 0.727                   1

4 0
 s    8 1.00
                 14710  0.00072067370873197
                  2207  0.0055504869689163
                 502.8   0.028254207662589
                 142.6    0.10639582836653
                 46.47    0.28668420124307
                  16.7    0.44843796582416
                 6.356    0.26464118141135
                 1.316   0.015326060993048
 s    8 1.00
                 14710  -0.00032119389049893
                  2207  -0.0025461915683188
                 502.8  -0.012643359507821
                 142.6   -0.05195749170489
                 46.47   -0.14344713812646
                  16.7   -0.33243762329603
                 6.356   -0.21865906750347
                 1.316     1.0955904138622
 s    1 1.00
                0.3897                   1
 p    3 1.00
                 22.67   0.064834021493887
                 4.977    0.34053535983101
                 1.347    0.73464640679382
 p    1 1.00
                0.3471                   1
 d    1 1.00
                  1.64                   1

5 0
 s    8 1.00
                 14710  0.00072067370873197
                  2207  0.0055504869689163
                 502.8   0.028254207662589
                 142.6    0.10639582836653
                 46.47    0.28668420124307
                  16.7    0.44843796582416
                 6.356    0.26464118141135
                 1.316   0.015326060993048
 s    8 1.00
                 14710  -0.00032119389049893
                  2207  -0.0025461915683188
                 502.8  -0.012643359507821
                 142.6   -0.05195749170489
                 46.47   -0.14344713812646
                  16.7   -0.33243762329603
                 6.356   -0.21865906750347
                 1.316     1.0955904138622
 s    1 1.00
                0.3897                   1
 p    3 1.00
                 22.67   0.064834021493887
                 4.977    0.34053535983101
                 1.347    0.73464640679382
 p    1 1.00
                0.3471                   1
 d    1 1.00
                  1.64                   1

6 0
 s    8 1.00
                 14710  0.00072067370873197
                  2207  0.0055504869689163
                 502.8   0.028254207662589
                 142.6    0.10639582836653
                 46.47    0.28668420124307
                  16.7    0.44843796582416
                 6.356    0.26464118141135
                 1.316   0.015326060993048
 s    8 1.00
                 14710  -0.00032119389049893
                  2207  -0.0025461915683188
                 502.8  -0.012643359507821
                 142.6   -0.05195749170489
                 46.47   -0.14344713812646
                  16.7   -0.33243762329603
                 6.356   -0.21865906750347
                 1.316     1.0955904138622
 s    1 1.00
                0.3897                   1
 p    3 1.00
                 22.67   0.064834021493887
                 4.977    0.34053535983101
                 1.347    0.73464640679382
 p    1 1.00
                0.3471                   1
 d    1 1.00
                  1.64                   1

7 0
 s    3 1.00
                 13.01   0.033498726389998
                 1.962    0.23480080117413
                0.4446     0.8136829578829
 s    1 1.00
                 0.122                   1
 p    1 1.00
                 0.727                   1

8 0
 s    8 1.00
                 14710  0.00072067370873197
                  2207  0.0055504869689163
                 502.8   0.028254207662589
                 142.6    0.10639582836653
                 46.47    0.28668420124307
                  16.7    0.44843796582416
                 6.356    0.26464118141135
                 1.316   0.015326060993048
 s    8 1.00
                 14710  -0.00032119389049893
                  2207  -0.0025461915683188
                 502.8  -0.012643359507821
                 142.6   -0.05195749170489
                 46.47   -0.14344713812646
                  16.7   -0.33243762329603
                 6.356   -0.21865906750347
                 1.316     1.0955904138622
 s    1 1.00
                0.3897                   1
 p    3 1.00
                 22.67   0.064834021493887
                 4.977    0.34053535983101
                 1.347    0.73464640679382
 p    1 1.00
                0.3471                   1
 d    1 1.00
                  1.64                   1

[5d]
[7f]
[9g]

[MO]
 Sym= A
 Ene=               0
 Spin= Alpha
 Occup=    1.00000
   1       1.0018673827827
   2    -0.00090498012214436
   3    -0.0093833959818406
   4    -0.00013273526903767
   5    -0.0010063245174016
   6    -0.002677087060994
   7    -0.0016288587333872
   8    -0.00048788493257714
   9    -0.0013360268738458
  10    -3.7348858740478e-05
  11    8.3899199076657e-05
  12    -0.0001257147364232
  13    -0.00025636894502929
  14    3.8520197457427e-05
  15    -0.00021681692111997
  16    -0.0008478293298732
  17    0.0029571013478579
  18    0.0010947063054301
  19    -3.4740349453977e-05
  20    5.3232794011519e-05
  21    -0.0010068225450479
  22    -4.3290888202761e-05
  23    3.9040962452874e-05
  24    8.5204762875753e-05
  25    -5.2726460023788e-05
  26    -1.1085500954818e-05
  27    -0.00020267647432943
  28    -3.7814568820777e-06
  29    0.00017101726799722
  30    0.00033278717422399
  31    -3.8080194882934e-05
  32    2.6269863020341e-06
  33    -6.0543819559178e-05
  34    -6.8737175799114e-06
  35    1.1009761847791e-05
  36    -0.0001457897393914
  37    -0.00011677359786059
  38    1.5608298717702e-05
  39    -1.2090045015076e-05
  40    -0.0002382449623008
  41    -9.2248891274556e-05
  42    -5.6358463019158e-05
  43    -1.0876621797998e-05
  44    -2.2472687456362e-06
  45    2.3387230756294e-06
  46    2.7691236383914e-05
  47    -2.1443591279656e-06
  48    -2.6319151343263e-05
  49    -2.4606280095043e-06
  50    1.2141888153461e-05
  51    -0.00014505051810303
  52    -3.21382739038e-05
  53    2.5955391375523e-05
  54    -0.0003295902835441
  55    7.2830809389394e-05
  56    -8.7045977672598e-06
  57    -1.0658429630096e-05
  58    -4.9676454828044e-07
  59    -7.075639384895e-06
  60    2.6094003200126e-05
  61    1.6283618820555e-06
  62    0.00012118160110487
  63    -0.00013990380205938
  64    -0.00059849859518726
  65    -0.00044904515991104
  66    0.00080595609230964
  67    -0.00088855046696208
  68    -0.00042307237630476
  69    0.0012275824693526
  70    -0.0011770463520397
  71    -0.00010405688705121
  72    -9.7481911477684e-05
  73    0.00022756697582666
  74    5.8739709637875e-05
  75    8.856496032647e-05
  76    -0.0031590172562592
  77    0.00076191956352924
  78    2.7310536615422e-05
  79    0.00013107615417043
  80    0.0003457939285945
  81    0.00012844562807374
  82    -0.00012731126189292
  83    -0.00064149226375144
  84    -0.00044883373894543
  85    -0.0011914447856582
  86    -0.00015667526083475
  87    -0.00043629502298582
  88    -0.0017210816195712
  89    -0.00011279964474907
  90    0.00013593355550387
  91    -1.8920022833784e-05
  92    -0.00010129973051036
  93    0.00019977832819329
  94    -0.00013281880831515
 Sym= A
 Ene=               1
 Spin= Alpha
 Occup=    1.00000
   1    -0.00021680381247095
   2    -0.00084781609692214
   3    0.0029571197162106
   4    -0.0010946873792072
   5    5.0864788535341e-05
   6    3.8143404489522e-05
   7    0.0010068314635419
   8    5.4038759724336e-05
   9    2.1883184332013e-05
  10    8.4615477912949e-05
  11    5.0839191927908e-05
  12    -9.2173645241636e-06
  13    -0.00020301518159611
  14    1.4479474252728e-05
  15       1.0018673827976
  16    -0.00090498520068022
  17    -0.0093833994823373
  18    0.00013271371104027
  19    3.0018068469476e-05
  20    -0.0028598222009812
  21    0.0016288584003857
  22    1.5089085744537e-06
  23    -0.0014223171680271
  24    -7.4814059738162e-05
  25    -9.2013925841993e-05
  26    -6.8865953295894e-06
  27    -0.00027799476259564
  28    7.4986044406237e-06
  29    -0.0031590409077722
  30    0.00076190357492618
  31    -2.7310965712532e-05
  32    -4.9022992073495e-06
  33    0.00036977162093159
  34    0.00012118183019533
  35    -0.00013989830563986
  36    -0.00059849164033155
  37    0.00044910212983429
  38    -0.0010613062621296
  39    -0.0005592068030723
  40    0.00042311241835189
  41    -0.0015561598848899
  42    -0.00068613114898031
  43    3.4932763081012e-05
  44    6.1311786791609e-05
  45    -0.00021337223477726
  46    0.00013898505205722
  47    0.00011656589784323
  48    0.00012844557833696
  49    -0.0001273170730244
  50    -0.00064149399510877
  51    0.00044883506691943
  52    0.0010660203718567
  53    -0.00055469863722844
  54    0.00043629621224227
  55    0.0015787165258335
  56    -0.00069462264362762
  57    3.5452831181478e-05
  58    6.320547469966e-05
  59    0.00021747768816083
  60    0.00014176621883656
  61    -0.00011833790555979
  62    -6.8738406793364e-06
  63    1.1012609598243e-05
  64    -0.00014578927751133
  65    0.00011678393961167
  66    -1.8794648952171e-05
  67    -6.0147785580286e-06
  68    0.00023825074810418
  69    6.7415065356804e-05
  70    -8.4506229262343e-05
  71    -1.0471248806176e-05
  72    2.8457571668984e-06
  73    1.0534771272317e-06
  74    2.7925428873992e-05
  75    -1.2466687398192e-06
  76    0.00017102128601328
  77    0.00033278379023918
  78    3.8080804719449e-05
  79    -2.3175685043424e-05
  80    -5.5994437431057e-05
  81    -2.6319129605722e-05
  82    -2.4632855918311e-06
  83    1.2141722367144e-05
  84    0.00014503954960811
  85    3.9066286596217e-05
  86    1.3395567696025e-05
  87    0.00032958182571624
  88    -7.1422466555746e-05
  89    1.6728445324159e-05
  90    -1.5370322897941e-05
  91    -9.007150542243e-08
  92    7.8733391810162e-06
  93    2.3373750562228e-05
  94    1.6998595213296e-06
 Sym= A
 Ene=               2
 Spin= Alpha
 Occup=    1.00000
   1    7.7968259748012e-05
   2    0.00010047712530441
   3    -0.0018604543868574
   4    -0.00012030934121765
   5    3.533824025769e-06
   6    -2.4041988991248e-05
   7    -0.00091057362553046
   8    -0.00022340832282139
   9    0.00054001528082323
  10    1.3773144711059e-05
  11    4.1949586223126e-05
  12    -6.4803444325709e-05
  13    -7.5373266563085e-05
  14    -9.9215771815302e-06
  15    -5.9411589268074e-05
  16    1.6503258642406e-05
  17    0.0040483308165114
  18    0.00025268460008731
  19    0.00044806767430573
  20    -0.00026568711158704
  21    -0.00043291708089097
  22    0.0011153249137586
  23    -0.001117182260574
  24    1.8016585332165e-06
  25    3.4392999885833e-05
  26    6.0961701187155e-05
  27    4.9151744728784e-05
  28    -2.9322205915281e-05
  29    -0.0002480922201992
  30    -8.0568851620962e-05
  31    7.3658044453056e-06
  32    -0.00013461052434733
  33    0.00012565400677465
  34    0.00010786782223331
  35    0.00019991945551334
  36    -0.00076989038081028
  37    3.2251044147982e-06
  38    7.901808613708e-06
  39    -4.6964703534229e-05
  40    6.8463476048052e-05
  41    -0.00040073182316416
  42    0.00011532020863463
  43    2.1133210986564e-05
  44    -1.1235244369039e-05
  45     -2.2064593444e-06
  46     2.13296459013e-05
  47    1.323718030801e-05
  48       1.0010174948899
  49    -0.0040403602611142
  50    -0.011208098649793
  51    -0.0011003491680913
  52    -0.0024526900069545
  53    0.0014343380586626
  54    -1.5738749322578e-05
  55    0.00012713862539486
  56    -6.7954246201841e-05
  57    1.3686427488471e-05
  58    5.1694862338793e-05
  59    0.00010084098821685
  60    8.7217889405942e-05
  61    -7.0905416709367e-05
  62    -5.1822434256786e-05
  63    -9.7217745910411e-05
  64    0.00036301718540517
  65    2.2100148203929e-06
  66    2.0731763415608e-05
  67    -3.4881825177041e-05
  68    2.9201461659959e-05
  69    -5.7399549749575e-05
  70    6.7969561053862e-05
  71    3.0505297398373e-06
  72    -1.9916674564602e-06
  73    9.0140273396573e-06
  74    -2.0391580333788e-05
  75    -1.1755648386404e-06
  76    0.00010454477595619
  77    -0.00018424654601557
  78    2.2939148140369e-05
  79    2.7593062066354e-05
  80    -4.1391351579401e-05
  81    -2.9052831379426e-05
  82    -4.9108529963953e-05
  83    0.00020724140204363
  84    -6.6881674584537e-06
  85    4.6842058435563e-06
  86    1.7187340559834e-05
  87    0.00012239289577995
  88    8.1577884983032e-05
  89    -7.3609320540846e-05
  90    -2.2619015220907e-06
  91    -1.1121565286868e-07
  92    -1.6537995368854e-05
  93    -8.1060510474772e-06
  94    2.1226702844685e-06
 Sym= A
 Ene=               3
 Spin= Alpha
 Occup=    1.00000
   1    -5.9408978160281e-05
   2    1.6490149089435e-05
   3    0.0040483493570395
   4    -0.00025266467735684
   5    -0.00051194781248895
   6    -9.6376386223203e-05
   7    0.00043294959772425
   8    -0.0014301685522592
   9    -0.00066831601658332
  10    3.043962130456e-05
  11    -2.2300157426707e-05
  12    -2.9911198785619e-05
  13    6.5671426578504e-05
  14    -3.9345124298998e-05
  15     7.79671168693e-05
  16    0.0001004686019475
  17    -0.0018605043487953
  18    0.00012033938443366
  19    -1.1556589039717e-05
  20    -2.1391138568224e-05
  21    0.00091060124522365
  22    0.0003946143932207
  23    0.00043103230741409
  24    -1.7082335986436e-05
  25    -3.6028783075123e-05
  26    3.3086642588216e-05
  27    -9.3191350150833e-05
  28    -2.3670595833802e-05
  29    0.00010454589043535
  30    -0.00018424007838806
  31    -2.2937499778785e-05
  32    -4.0085119887256e-05
  33    -2.9458654902309e-05
  34    -5.1822703861334e-05
  35    -9.721540520164e-05
  36    0.00036301314077687
  37    -2.2320557077837e-06
  38    -3.1391157051874e-05
  39    -2.5696601145269e-05
  40    -2.9218999456084e-05
  41    7.7196450708187e-05
  42    4.4230864067996e-05
  43    9.5981009586406e-06
  44    2.2730230709069e-06
  45    -1.1760668983816e-05
  46    -1.6610448750933e-05
  47    -4.2352058455252e-07
  48    -2.905106140118e-05
  49    -4.9106295905114e-05
  50    0.00020725522055312
  51    6.6758937943832e-06
  52    1.4737780708812e-06
  53    1.7758636909432e-05
  54    -0.00012240574937629
  55    -0.00010183704750465
  56    -4.1261813344295e-05
  57    -1.024995193314e-05
  58    -6.2130518759186e-07
  59    8.804278044393e-06
  60    -1.271855445408e-05
  61    2.0324653471115e-06
  62    0.00010786743505931
  63    0.00019991953107735
  64    -0.00076986994210353
  65    -3.2637262963133e-06
  66    -2.3463762976779e-05
  67    -4.1400425851182e-05
  68    -6.849029136046e-05
  69    0.00041601598335191
  70    -2.8669260055621e-05
  71    1.4036535434799e-05
  72    6.0290027477365e-06
  73    2.0310672689827e-05
  74    1.723251853388e-05
  75    1.6282113395098e-05
  76    -0.00024808642619962
  77    -8.0570216822596e-05
  78    -7.366722853831e-06
  79    0.00016946722526978
  80    7.2037726911933e-05
  81       1.0010174894438
  82    -0.0040406747081841
  83    -0.011208451314984
  84    0.0011008493091767
  85    0.0027952444020869
  86    0.00050920785299825
  87    1.6084876277144e-05
  88    -0.00014277980222477
  89    -2.020674799705e-05
  90    5.8585954654329e-05
  91    -2.4321779810754e-05
  92    -4.1594085660911e-05
  93    0.00011314684264806
  94    -8.4301424857321e-05
 Sym= A
 Ene=               4
 Spin= Alpha
 Occup=    1.00000
   1    7.997087064671e-05
   2    0.00011058225426388
   3    -0.0017750793300945
   4    -0.00013663755984942
   5    3.3247661665227e-06
   6    -1.5396633021921e-05
   7    -0.00071042425215448
   8    0.00034559745787707
   9    0.00046039660824968
  10    5.2095723629331e-06
  11    1.7600312137886e-05
  12    5.9233202327477e-05
  13    -7.2200462327516e-05
  14    2.4737624470314e-05
  15    -5.3535212853157e-05
  16    2.3473535987064e-05
  17    0.0038651775680668
  18     0.000261268461983
  19    -0.00045459029431893
  20    -0.00026072822260553
  21    -0.00033299192813767
  22    -0.0011086123685922
  23    -0.0011073765575539
  24    -1.5601542324632e-07
  25    1.9244277257916e-05
  26    -6.9933944129166e-05
  27    4.2182942265477e-05
  28    4.1754657380952e-05
  29    -0.00023554756226326
  30    -0.00011668907877947
  31    8.4530632153086e-06
  32    0.00013152065126268
  33    0.00012358832167687
  34       1.0010148290121
  35    -0.0040379727581094
  36    -0.011177310742874
  37    -0.0010849637171676
  38     0.002417215420317
  39    0.0014946778098687
  40    -1.7852422750996e-05
  41    -0.00016211957584835
  42    2.7268503933141e-06
  43    1.6324900856222e-05
  44    4.7613045776004e-05
  45    -9.9798784667746e-05
  46    8.6816943928599e-05
  47    7.2774722907322e-05
  48    0.0001103435915571
  49    0.0002063639309147
  50    -0.00078182499173406
  51    6.0508232440441e-06
  52    -1.2477525652725e-05
  53    -4.7417824987771e-05
  54    6.2483665652646e-05
  55    0.00040478536682502
  56    0.00011488215461129
  57    2.1814914846075e-05
  58    -1.1437375781256e-05
  59    3.671646868892e-06
  60    2.2194359905931e-05
  61    -1.3245047703477e-05
  62    -1.2672129354589e-05
  63    -1.8593236455328e-05
  64    0.00021549480631548
  65    3.5158022897296e-05
  66    -1.5820559394904e-06
  67    8.8442844519759e-06
  68    -3.1975205674142e-05
  69    -8.5998558516416e-05
  70    2.4289981719205e-05
  71    5.2754176984244e-07
  72    3.9690855378957e-06
  73    -4.8198624386647e-06
  74    -1.8635953328692e-05
  75    3.9454116926217e-06
  76    4.5613784726727e-05
  77    -3.1382198655513e-05
  78    3.9386241134923e-05
  79    -4.4559233047168e-05
  80    -1.2967268785834e-05
  81    -5.1128006282113e-05
  82    -9.6002393624917e-05
  83    0.00034250424158566
  84    1.279477187516e-06
  85    -4.4050444105919e-05
  86    9.5810098696335e-06
  87    2.4517908150632e-05
  88    0.00011059277711124
  89    -6.4359136035649e-05
  90    1.4098840690271e-05
  91    2.0948833888663e-06
  92    -3.3944964264892e-06
  93    -1.280934352284e-05
  94    -2.6035626796783e-06
 Sym= A
 Ene=               5
 Spin= Alpha
 Occup=    1.00000
   1    -5.3491921391363e-05
   2    2.3647878193526e-05
   3     0.003865250538286
   4    -0.0002613427730765
   5    0.00033820807952562
   6    -0.00040065366682413
   7    0.00033299143312633
   8    0.00066309923471872
   9    -0.0014197163382342
  10    -4.3383479229877e-05
  11    -3.2374577844981e-05
  12    6.704381486316e-05
  13    1.724165082426e-05
  14    3.2641804386057e-05
  15    7.9977606549001e-05
  16    0.00011060010335955
  17    -0.001775113093583
  18    0.00013663471317403
  19    -8.3878810776159e-06
  20    -1.3337736838104e-05
  21    0.00071045285945763
  22    -0.00016730835926121
  23    0.00055083351367804
  24    4.4583512542221e-05
  25    -2.4984937569708e-05
  26    -6.5678227088058e-05
  27    -4.9465568740491e-05
  28    1.721497843615e-05
  29    4.562521941367e-05
  30    -3.1381446655867e-05
  31    -3.9382875569476e-05
  32    3.7438118564054e-05
  33    -2.7422237045212e-05
  34    -1.2672013324573e-05
  35    -1.8592357339929e-05
  36    0.00021550261286925
  37    -3.5169884972134e-05
  38    4.5077436282147e-06
  39    7.7843997077334e-06
  40    3.195577408236e-05
  41    8.9117731209887e-05
  42    -6.5785316143594e-06
  43    -3.6014951181889e-07
  44    -5.0793220271855e-06
  45    -2.0031718416248e-06
  46    -1.914850074321e-05
  47    2.3495900831888e-06
  48    -5.1127764732158e-05
  49    -9.6005802140977e-05
  50    0.00034250674805494
  51    -1.2744038743002e-06
  52    4.468312593667e-05
  53    -6.0858288296712e-06
  54    -2.4509046163851e-05
  55    -0.00012593202781292
  56    -2.2656213461839e-05
  57    1.103305721407e-05
  58    -1.0792887448726e-06
  59    6.3317173207814e-06
  60    -1.4580224415628e-05
  61    -3.1632366472898e-06
  62       1.0010147944131
  63    -0.0040400899866578
  64    -0.011179775019452
  65    0.0010851647199034
  66    -0.0017602322462804
  67    0.0022326854388915
  68    1.7988568554987e-05
  69    0.00015327775581235
  70    -5.1924261705644e-05
  71    -5.0864708103748e-05
  72    -6.9619739960485e-05
  73    0.00011342573098097
  74    4.8013270922862e-05
  75    5.2100952910507e-05
  76    -0.00023561085894713
  77    -0.00011682361709499
  78    -8.4586117461359e-06
  79    -8.1315017405429e-05
  80    0.00016111455697821
  81    0.00011034061165314
  82    0.00020636885591675
  83    -0.00078177152341718
  84    -6.0529313419442e-06
  85    -4.4845341552061e-06
  86    -4.8819339010558e-05
  87    -6.2477895421844e-05
  88    -0.000341068911678
  89    0.00024640430209535
  90    1.7780224107711e-05
  91    1.5275873202445e-05
  92    1.6462460516576e-05
  93    1.9864634690854e-05
  94    -8.5357022123314e-06
 Sym= A
 Ene=               6
 Spin= Alpha
 Occup=    1.00000
   1    -0.0019808493608457
   2    -0.013368067535156
   3    -0.0086787116330027
   4     0.020091077417343
   5    -0.021964914772918
   6     0.034926454002339
   7     0.018460117228632
   8    -0.026012007927844
   9     0.041421904227297
  10    -0.007048806064949
  11     -0.01035407143216
  12    -0.029728852662047
  13    -0.020460010317938
  14    -0.017636320068906
  15    -0.0024706860414303
  16    -0.016828085784893
  17    -0.020061223188171
  18     0.021205133353662
  19    -0.0023669465491787
  20    -0.00036413232754627
  21     0.012048759773082
  22    -0.012146253543445
  23     -0.01044336875934
  24    -0.00082763233014277
  25    -0.001940978158428
  26    -0.0006350590648641
  27    -0.0011865602254681
  28    -0.00044059333996589
  29    -0.0014934121899098
  30    0.0074743738426892
  31    0.0018483712883575
  32    0.00062551062949534
  33    -0.00035109325164759
  34    0.00049990497664675
  35    -0.0020613342362089
  36    -0.011445330686354
  37    0.0043452879224517
  38    0.0031629750885243
  39    -0.0061226854939176
  40    0.0024606220094094
  41    -0.0013455778235146
  42    -0.0039661544134434
  43    -0.0001881615230825
  44    -0.00036154735309333
  45    -0.00037230823552346
  46    0.00048673414273913
  47    0.00078874636649316
  48    -0.00073541867152208
  49    0.0013919449717989
  50     0.010122830135264
  51    -0.0064124332948432
  52    -0.0038132146789677
  53    0.0035909913977248
  54    -0.0093739664368692
  55    -0.0028542720228786
  56    0.0050944040654277
  57    5.6886766273057e-05
  58    0.00014942138528201
  59    -0.0001654172729416
  60    -0.00020124550799394
  61    -0.00014574948801941
  62    -0.0017433792564587
  63     0.014959499817282
  64     0.052070120329955
  65     0.003583348299301
  66    -0.034258917637115
  67     0.020938318178864
  68    0.0041934770991375
  69     -0.03336949453026
  70     0.019917357024891
  71    -2.8970886012423e-05
  72    -0.00048947153136783
  73    -0.00034695983936622
  74    0.00031310738412837
  75    -0.00055755664272646
  76    -0.014737698698529
  77    -0.014565463768073
  78    0.00065741315283657
  79    0.00075003854562521
  80    -0.00083688846028531
  81    -0.00069713014537436
  82    -0.0051083231237294
  83    -0.0031373598056239
  84      0.36143020687447
  85     -0.22920325679913
  86       0.5058461567623
  87      0.25017648472138
  88     -0.15619451250387
  89      0.34927362226053
  90    0.0042729559054255
  91    0.0060846784666077
  92    0.0094011582722428
  93    0.0075428309166866
  94    0.0058298671315127
 Sym= A
 Ene=               7
 Spin= Alpha
 Occup=    1.00000
   1    0.0011863354446027
   2     0.022289071107733
   3     0.069910571896623
   4     0.036870807402775
   5     0.001046555108513
   6    -0.0035449372601982
   7      0.04289305313151
   8    -0.014901334093495
   9    0.00052515530324829
  10    0.0004146412797287
  11    -0.002258899079007
  12    0.00058556080819342
  13    0.00075568472016123
  14     0.001368395967849
  15    0.0027651444734626
  16    0.0038461999594837
  17    -0.029582553962065
  18     0.013740826014292
  19    0.0049473868470712
  20     0.012070590463487
  21     0.045018187317967
  22     0.025862944236608
  23     0.013569326815671
  24     -0.02460281319656
  25    -0.009609546199878
  26     0.018291598907323
  27    0.0085173131893205
  28     0.026355491566619
  29    -0.040091947150146
  30     -0.04614027932304
  31    -0.0022395614239937
  32    -0.0032830054979071
  33    -0.0005471314433527
  34    -0.00095888030068282
  35    0.00089484329375731
  36      0.01481531215625
  37    -0.0048904503077059
  38    0.0043279077661795
  39    -0.0015450430670156
  40    -0.0079711564974654
  41    0.0040651243835663
  42    0.0013046707336784
  43    -0.00043829466760636
  44    -0.00012533496842259
  45    0.00047294174529227
  46    0.00022905172874687
  47    0.00043406317304681
  48    0.00099194836752602
  49    -0.010492405823879
  50    -0.024066244025318
  51      0.51766406867622
  52      0.04702576410793
  53      0.42219030754142
  54      0.35732794969975
  55     0.035116617925742
  56      0.28906518535295
  57    0.0079522236242966
  58    0.0026821926440942
  59    -0.0066307789024762
  60    -0.0027015581826071
  61    -0.0094395903892382
  62    0.0013345415611545
  63    0.0082698716358957
  64     0.004712753279013
  65     0.012399714553326
  66    0.0034429253152217
  67    -0.0011094153122185
  68    0.00071763356600083
  69    0.0020156570831695
  70    0.0028453034635591
  71    0.00095772088414683
  72    0.0006706202634405
  73    -0.00030089128800489
  74    -0.0013080614033077
  75    -0.0010010953267944
  76    -0.0043156039611637
  77    -0.005320655659349
  78    0.00050210372662725
  79    0.0016014358711011
  80    0.00011897869478244
  81    0.00012076906332658
  82    -0.0019593940812093
  83    -0.0093619473453607
  84    -0.007008243464392
  85    -0.003519621697923
  86    -0.00039646242574597
  87    -0.0063427297447188
  88    -0.0045826150760817
  89    -0.0017616699427082
  90    -0.0002010927845469
  91    5.7089050510982e-05
  92    -0.00014025651023787
  93    0.00052863378275695
  94    0.00065727390863043
 Sym= A
 Ene=               8
 Spin= Alpha
 Occup=    1.00000
   1     0.001378030824089
   2     0.017640935993159
   3     0.043241969518657
   4     0.030304701043135
   5    -0.0015831758518168
   6    -0.0020539265707664
   7     0.033289108143755
   8    0.0026592418425519
   9    0.0079190199604761
  10    2.9618345582158e-05
  11    -0.0017251886902141
  12    -0.00030802512079839
  13    -0.00020352574350852
  14    -0.0012373765100861
  15    0.0025695297198529
  16      0.01320976114898
  17    -0.0079670875282785
  18     0.024188012533652
  19     0.031196119563239
  20    -0.021712667959567
  21     0.035002045849828
  22     0.031227490943125
  23    -0.023148628488174
  24     0.014344466954373
  25    -0.017756936545265
  26    0.0079157265684988
  27     0.029255944390142
  28    -0.018976831195068
  29    0.0057090817132418
  30    0.0022053272134367
  31    0.00017769105191653
  32    -9.4764055893374e-05
  33    0.0003171226784365