[Molden Format]
made by pyscf v[2.0.1]
[Atoms] (AU)
C   1   6     0.00000000000000     0.00000000000000     0.00000000000000
C   2   6     2.85272299873892     0.00000000000000     0.00000000000000
H   3   1     3.62066923017674     0.00000000000000     1.90331545357504
F   4   9     3.65943188126013    -2.04308229183900    -1.24074875274501
F   5   9     3.65943188126013     2.04308229183900    -1.24074875274501
F   6   9    -0.80670888252121    -2.09606108551054    -1.14898679038220
H   7   1    -0.76794623143782     1.64831953421149    -0.95165772678752
F   8   9    -0.80670888252121    -0.05297879367154     2.38973554312721
[GTO]
1 0
 s    8 1.00
                  6665  0.00069158396281299
                  1000  0.0053257961529341
                   228   0.027060721042034
                 64.71    0.10165684614077
                 21.06     0.2745748236174
                 7.495    0.44829431892377
                 2.797    0.28490261071525
                0.5215   0.015194859206082
 s    8 1.00
                  6665  -0.00029326965268655
                  1000  -0.0023180354739745
                   228  -0.011499786038565
                 64.71  -0.046826727009787
                 21.06   -0.12846616875047
                 7.495   -0.30126627246289
                 2.797   -0.25563070233011
                0.5215      1.093793361012
 s    1 1.00
                0.1596                   1
 p    3 1.00
                 9.439   0.056979251590039
                 2.002    0.31320721150073
                0.5456    0.76037674173753
 p    1 1.00
                0.1517                   1
 d    1 1.00
                  0.55                   1

2 0
 s    8 1.00
                  6665  0.00069158396281299
                  1000  0.0053257961529341
                   228   0.027060721042034
                 64.71    0.10165684614077
                 21.06     0.2745748236174
                 7.495    0.44829431892377
                 2.797    0.28490261071525
                0.5215   0.015194859206082
 s    8 1.00
                  6665  -0.00029326965268655
                  1000  -0.0023180354739745
                   228  -0.011499786038565
                 64.71  -0.046826727009787
                 21.06   -0.12846616875047
                 7.495   -0.30126627246289
                 2.797   -0.25563070233011
                0.5215      1.093793361012
 s    1 1.00
                0.1596                   1
 p    3 1.00
                 9.439   0.056979251590039
                 2.002    0.31320721150073
                0.5456    0.76037674173753
 p    1 1.00
                0.1517                   1
 d    1 1.00
                  0.55                   1

3 0
 s    3 1.00
                 13.01   0.033498726389998
                 1.962    0.23480080117413
                0.4446     0.8136829578829
 s    1 1.00
                 0.122                   1
 p    1 1.00
                 0.727                   1

4 0
 s    8 1.00
                 14710  0.00072067370873197
                  2207  0.0055504869689163
                 502.8   0.028254207662589
                 142.6    0.10639582836653
                 46.47    0.28668420124307
                  16.7    0.44843796582416
                 6.356    0.26464118141135
                 1.316   0.015326060993048
 s    8 1.00
                 14710  -0.00032119389049893
                  2207  -0.0025461915683188
                 502.8  -0.012643359507821
                 142.6   -0.05195749170489
                 46.47   -0.14344713812646
                  16.7   -0.33243762329603
                 6.356   -0.21865906750347
                 1.316     1.0955904138622
 s    1 1.00
                0.3897                   1
 p    3 1.00
                 22.67   0.064834021493887
                 4.977    0.34053535983101
                 1.347    0.73464640679382
 p    1 1.00
                0.3471                   1
 d    1 1.00
                  1.64                   1

5 0
 s    8 1.00
                 14710  0.00072067370873197
                  2207  0.0055504869689163
                 502.8   0.028254207662589
                 142.6    0.10639582836653
                 46.47    0.28668420124307
                  16.7    0.44843796582416
                 6.356    0.26464118141135
                 1.316   0.015326060993048
 s    8 1.00
                 14710  -0.00032119389049893
                  2207  -0.0025461915683188
                 502.8  -0.012643359507821
                 142.6   -0.05195749170489
                 46.47   -0.14344713812646
                  16.7   -0.33243762329603
                 6.356   -0.21865906750347
                 1.316     1.0955904138622
 s    1 1.00
                0.3897                   1
 p    3 1.00
                 22.67   0.064834021493887
                 4.977    0.34053535983101
                 1.347    0.73464640679382
 p    1 1.00
                0.3471                   1
 d    1 1.00
                  1.64                   1

6 0
 s    8 1.00
                 14710  0.00072067370873197
                  2207  0.0055504869689163
                 502.8   0.028254207662589
                 142.6    0.10639582836653
                 46.47    0.28668420124307
                  16.7    0.44843796582416
                 6.356    0.26464118141135
                 1.316   0.015326060993048
 s    8 1.00
                 14710  -0.00032119389049893
                  2207  -0.0025461915683188
                 502.8  -0.012643359507821
                 142.6   -0.05195749170489
                 46.47   -0.14344713812646
                  16.7   -0.33243762329603
                 6.356   -0.21865906750347
                 1.316     1.0955904138622
 s    1 1.00
                0.3897                   1
 p    3 1.00
                 22.67   0.064834021493887
                 4.977    0.34053535983101
                 1.347    0.73464640679382
 p    1 1.00
                0.3471                   1
 d    1 1.00
                  1.64                   1

7 0
 s    3 1.00
                 13.01   0.033498726389998
                 1.962    0.23480080117413
                0.4446     0.8136829578829
 s    1 1.00
                 0.122                   1
 p    1 1.00
                 0.727                   1

8 0
 s    8 1.00
                 14710  0.00072067370873197
                  2207  0.0055504869689163
                 502.8   0.028254207662589
                 142.6    0.10639582836653
                 46.47    0.28668420124307
                  16.7    0.44843796582416
                 6.356    0.26464118141135
                 1.316   0.015326060993048
 s    8 1.00
                 14710  -0.00032119389049893
                  2207  -0.0025461915683188
                 502.8  -0.012643359507821
                 142.6   -0.05195749170489
                 46.47   -0.14344713812646
                  16.7   -0.33243762329603
                 6.356   -0.21865906750347
                 1.316     1.0955904138622
 s    1 1.00
                0.3897                   1
 p    3 1.00
                 22.67   0.064834021493887
                 4.977    0.34053535983101
                 1.347    0.73464640679382
 p    1 1.00
                0.3471                   1
 d    1 1.00
                  1.64                   1

[5d]
[7f]
[9g]

[MO]
 Sym= A
 Ene=               0
 Spin= Alpha
 Occup=    1.00000
   1    -0.00021175506812983
   2    -0.00088088667068096
   3    0.0028449543038131
   4    -0.0010816692256508
   5    5.6437130826414e-05
   6    -9.1968162147778e-05
   7    0.0012845795029998
   8    -0.00024335480890537
   9    0.00032704672748174
  10    0.00012294650923316
  11    1.5364913365249e-05
  12    1.6192421728098e-05
  13    -0.00018308196841035
  14    2.5091949241866e-05
  15       1.0018718765839
  16    -0.00093519464693984
  17    -0.0096956968365024
  18    0.00014972294182448
  19    6.0516595924069e-05
  20    -0.0030571134442212
  21    0.0016726861357768
  22    7.2998020052067e-05
  23    -0.0015578721490147
  24    -9.5657839830121e-05
  25    -0.00010596717680223
  26    -1.509316284148e-05
  27    -0.00030303888575426
  28    -5.3745856940523e-07
  29    -0.0030878527676511
  30    0.00087602365701163
  31    -5.5934019752133e-05
  32    -1.2517471253067e-05
  33    0.00033011015007525
  34    0.0001258782078559
  35    -0.00012940189557687
  36    -0.00060891959216379
  37    0.00044783612861474
  38    -0.0010597098171656
  39    -0.00055421035430459
  40    0.00043935185037205
  41    -0.001573053141801
  42    -0.00066048268918448
  43    3.8574601462871e-05
  44    6.4340687985651e-05
  45    -0.00021527042227611
  46    0.0001422846491487
  47    0.00011769200873119
  48    0.00014396896304524
  49    -9.2904139635345e-05
  50    -0.00072067994022576
  51    0.0004437233663766
  52    0.0010604624149555
  53    -0.00054712437508741
  54     0.000433351073484
  55    0.0015900736390093
  56    -0.0006888334829112
  57    3.7431954133148e-05
  58    6.6436065993985e-05
  59    0.00022231082283548
  60    0.00014575609174774
  61    -0.00012210184654319
  62    -1.8046829297224e-05
  63    1.0919608122469e-05
  64    -2.7650243514444e-05
  65    0.00012743368889402
  66    2.0670406126337e-05
  67    5.9592116480388e-05
  68    0.00024505845296355
  69    -3.3177839059418e-05
  70    -2.5404695856112e-05
  71    -1.7982659153132e-05
  72    1.1649925479829e-08
  73    2.1314391001795e-06
  74    2.2507994601577e-05
  75    2.8077197658862e-06
  76    4.6619234947236e-05
  77    0.00053170754834431
  78    7.2100934973283e-05
  79    -3.6815013966688e-05
  80    1.6932312061564e-05
  81    2.0253745617924e-05
  82    0.00015669064685001
  83    -5.5865716479527e-05
  84    0.0003166950719852
  85    -9.5186246135752e-06
  86    -8.6506858553043e-05
  87    0.00031415782521971
  88    2.5129659841602e-05
  89    -1.8119227712565e-05
  90    8.5726452694078e-06
  91    1.5098864344595e-06
  92    -4.7264650936215e-06
  93    1.4559131672085e-05
  94    1.3138468470436e-06
 Sym= A
 Ene=               1
 Spin= Alpha
 Occup=    1.00000
   1       1.0018718767016
   2    -0.00093519569908711
   3    -0.0096956966797801
   4    -0.0001497090401993
   5    -0.0026172886309497
   6     0.001580968857766
   7    -0.0016726824434553
   8    -0.0013126608569828
   9    0.00084215543596109
  10    0.00022010615211439
  11      -5.251823678e-05
  12    0.00019541659778168
  13    -0.00012073126833593
  14    9.2039157149197e-05
  15    -0.00021175526600932
  16    -0.00088088137619511
  17    0.0028449592950442
  18    0.0010816594026446
  19    -5.1430858316139e-05
  20    9.4859837196371e-05
  21    -0.001284582290351
  22    0.00016155313041562
  23    -0.00037427529443272
  24    9.1402393624949e-05
  25    -1.4048107082236e-05
  26    -4.8364992829847e-06
  27    -0.00020129271937613
  28    -2.5852031722226e-05
  29    4.6617932447993e-05
  30    0.00053170552178218
  31    -7.2101111794413e-05
  32    -3.7437893479077e-06
  33    -4.0348855170068e-05
  34    -1.8046776650077e-05
  35    1.0919632431796e-05
  36    -2.7651408576568e-05
  37    -0.00012743170609898
  38    6.1945024221486e-05
  39    -1.1895977390082e-05
  40    -0.0002450562670001
  41    -3.8589174039072e-05
  42    -1.6031308169173e-05
  43    -1.3970171010094e-05
  44    -2.4257998078705e-06
  45    4.8064859783187e-06
  46    2.482464913306e-05
  47    -1.41405178999e-06
  48    2.025380475999e-05
  49    0.00015669004401696
  50    -5.5866683635198e-05
  51    -0.00031668693735798
  52    -7.9677066983537e-05
  53    3.5006960312945e-05
  54    -0.00031415171223518
  55    -3.1272187529834e-06
  56    3.0820443739067e-05
  57    -6.9832083648435e-06
  58    -3.8281610372514e-07
  59    -1.5096909768405e-05
  60    5.5779508138817e-06
  61    -1.9645672568132e-06
  62    0.00012587829062409
  63    -0.00012940161572742
  64    -0.00060892002875212
  65    -0.00044783495888007
  66    -0.001009814880876
  67    -0.00064063191976347
  68    -0.00043935196102604
  69    -0.0013585208279104
  70    -0.0010320640836537
  71    6.4214428402832e-05
  72    -6.9753820051987e-05
  73    -0.00019817723800146
  74    0.00015708796637927
  75    -0.00011456649457922
  76    -0.0030878647874988
  77    0.00087601933653928
  78    5.5933746752232e-05
  79    0.00027962580064039
  80    -0.00017589601234064
  81    0.00014396898385383
  82    -9.2904827295608e-05
  83    -0.00072068056149724
  84    -0.00044372627515654
  85    5.640213686848e-05
  86    0.0011919506386693
  87    -0.00043335372676901
  88    0.00019848624111311
  89    0.0017214613462563
  90    -0.00026608363192768
  91    0.0001389612527747
  92    1.9967455552314e-05
  93    -2.9478552544054e-05
  94    3.5155220542768e-06
 Sym= A
 Ene=               2
 Spin= Alpha
 Occup=    1.00000
   1    -6.6710707806084e-05
   2    -3.1564596384088e-06
   3    0.0041267204494176
   4    -0.00024371071480431
   5    -0.00044826434527692
   6    -0.00025132628340649
   7    0.00042048020912692
   8    -0.0014575548728717
   9    -0.00047617771141631
  10    2.4592086761808e-05
  11    -3.5079884174392e-05
  12    -5.3600238606015e-05
  13    5.4829808572652e-05
  14    -3.8403283809465e-05
  15    9.2860812820422e-05
  16    0.00012701384798028
  17    -0.0019739716858938
  18    0.00012079371699016
  19    -2.1463778730383e-06
  20    -4.8044638830336e-06
  21    0.00092038033470682
  22    0.0004469300834672
  23    0.00027385251886956
  24    7.5698627089008e-06
  25    -4.0476543594245e-06
  26    6.3018028388989e-05
  27    -6.8004004872983e-05
  28    -3.8643263131967e-05
  29    0.00012051083389305
  30    -9.1039681961071e-05
  31    -2.9595379727878e-05
  32    -6.2263388676012e-05
  33    -1.8312134079183e-05
  34    -6.4062816390844e-05
  35    -0.00012035013482819
  36    0.00040566131685573
  37    1.1173833298221e-05
  38    -3.6381323431037e-05
  39    -2.377755643149e-05
  40    -7.9640649058513e-05
  41    8.5405612950161e-05
  42    4.7860329824016e-05
  43    1.2787153444753e-05
  44    1.2367097339506e-06
  45    -7.978759695433e-06
  46    -1.1258206808658e-05
  47    -2.186659549642e-06
  48    -1.7454966498135e-05
  49    -2.5176258198123e-05
  50    0.00016687701211636
  51    3.2983071609048e-06
  52    -9.8194867722639e-06
  53    1.3706422584902e-05
  54    -0.00012238950875314
  55    -8.0702641923044e-05
  56    -1.7955860025308e-05
  57    -9.759929547381e-06
  58    -3.368060919039e-06
  59    1.4644758247293e-06
  60    -1.370500762151e-05
  61    3.7464457549139e-06
  62       1.0010184081392
  63    -0.0039279405894388
  64    -0.011068114085366
  65    0.0011084450852709
  66    0.0024228848276305
  67    0.0013532912598114
  68    3.1761252002463e-05
  69    -0.00014269309611106
  70    -0.00013610792607329
  71     1.65439691305e-05
  72    -3.8679869933617e-05
  73    -9.9510964950463e-05
  74    9.0391527011999e-05
  75    -7.7972898504725e-05
  76    -0.0002562753224204
  77    -0.00014020510646019
  78    -6.550351018218e-06
  79    0.0001775926488138
  80    5.3714409472835e-05
  81    0.0001094753462294
  82    0.0002038757857744
  83    -0.0007784638466079
  84    -4.3381908861516e-06
  85    -4.5678177815044e-05
  86    1.3983146884039e-05
  87    -7.5471244038326e-05
  88    0.00029406460568654
  89    0.0003008251323303
  90    -2.1641513936483e-05
  91    6.3160347140498e-06
  92    -2.3273135981699e-05
  93    -1.8188400287234e-06
  94    1.6871761335116e-05
 Sym= A
 Ene=               3
 Spin= Alpha
 Occup=    1.00000
   1    9.2860855767846e-05
   2    0.00012702259798304
   3    -0.0019739381662139
   4    -0.00012077452682547
   5    -5.2324009428828e-06
   6    5.4596372398076e-07
   7    -0.00092036081323457
   8    0.00046063258353251
   9    0.0002501358080065
  10    -4.0399285684376e-06
  11    3.1443586484182e-05
  12     5.52784382764e-05
  13    -7.4706885454598e-05
  14    2.2829309697227e-05
  15    -6.6718487671211e-05
  16    -3.1901168033356e-06
  17     0.004126704802084
  18    0.00024370263591872
  19    -0.00044173375384411
  20    -0.00026252343060129
  21    -0.00042046114943646
  22    -0.0011411480784755
  23    -0.0010242068956701
  24    1.5149098968898e-06
  25    1.5709305920344e-05
  26    -6.8984232481071e-05
  27    4.1515444785855e-05
  28    4.9570717352031e-05
  29    -0.00025627525458169
  30    -0.00014019502821078
  31    6.5485099458496e-06
  32    0.00013531637617778
  33    0.00012694285584017
  34       1.0010184154629
  35    -0.0039275174849013
  36     -0.01106762734234
  37    -0.0011081365800497
  38    0.0023833784146871
  39    0.0014214603417196
  40    -3.154886534198e-05
  41    -0.00018925302959183
  42    -5.5640541413316e-05
  43    1.3853455986792e-05
  44    4.8191143249763e-05
  45    -0.00010130727396849
  46    8.8836841657786e-05
  47    7.2489574410638e-05
  48    0.00010947596593535
  49    0.00020387082610533
  50    -0.00077848066892883
  51    4.3408396771977e-06
  52    -1.0718505087053e-05
  53    -4.6554335531742e-05
  54    7.5472420199475e-05
  55    0.00040756518477979
  56    0.00010425169950999
  57    2.1341915100173e-05
  58    -1.1453893701694e-05
  59    5.382257725202e-06
  60    2.2997954893733e-05
  61    -1.3906027107631e-05
  62    -6.4062894376382e-05
  63    -0.00012034755751187
  64    0.00040566672529978
  65    -1.1170920200245e-05
  66    -3.8780215362213e-05
  67    -1.961618597737e-05
  68    7.9642144995107e-05
  69    8.4153080052998e-05
  70    5.0033160870636e-05
  71    1.1698306119679e-05
  72    2.5121151538419e-06
  73    -8.7046967741294e-06
  74    -1.1887342700212e-05
  75    2.2636424712846e-08
  76    0.00012050523860448
  77    -9.1047264324084e-05
  78    2.9596132934618e-05
  79    -4.6990481023329e-05
  80    -4.4766118505861e-05
  81    -1.7454856677596e-05
  82    -2.5177536514158e-05
  83    0.00016687081688576
  84    -3.3026410538427e-06
  85    6.959229777846e-06
  86    -1.5354673222189e-05
  87    0.00012238542711866
  88    -5.590295578737e-05
  89    -6.0910001312388e-05
  90    9.0230918263681e-06
  91    -4.928930563752e-06
  92    1.398665713489e-05
  93    -2.8602643051147e-06
  94    1.0437054557462e-06
 Sym= A
 Ene=               4
 Spin= Alpha
 Occup=    1.00000
   1    0.00010109336523956
   2    0.00015646854140374
   3    -0.0018085823857367
   4    -0.00014526535954595
   5    5.1616261993982e-05
   6    -3.388871717212e-05
   7     -0.00081951887718
   8    -0.00019319702475967
   9    0.00026060720739912
  10    -6.1526206727418e-06
  11    3.9022431473037e-05
  12    -8.5336307140905e-05
  13    -9.206654794342e-05
  14    -4.0014395760874e-05
  15    -4.931751035827e-05
  16    3.1056486059399e-05
  17    0.0039178442602252
  18    0.00024248830008199
  19    0.00044530773744735
  20    -0.0002630506548342
  21    -0.00035405487328909
  22    0.0010657161644789
  23    -0.0010045721590086
  24    4.3230101877234e-06
  25    2.0052040411153e-05
  26    6.0339489035113e-05
  27    3.5530970374142e-05
  28    -3.9044185861453e-05
  29    -0.00024285769223698
  30    -0.0001478379364955
  31    5.9648426985336e-06
  32    -0.00012947727635405
  33    0.0001270770404781
  34    0.00010774057845556
  35    0.00020094916031645
  36    -0.0007627381618139
  37    4.2801139895114e-06
  38    1.1409394100185e-05
  39    -4.7429738488782e-05
  40    6.705661991795e-05
  41    -0.00039446553226759
  42    0.00010712950569422
  43    2.0884498359924e-05
  44    -1.1944077402734e-05
  45    -4.5777218920708e-06
  46    2.1277449592301e-05
  47    1.3269496061936e-05
  48       1.0010153286633
  49    -0.0040141460224716
  50    -0.011129225504458
  51    -0.0011451367962881
  52    -0.0024032994305531
  53    0.0014316608270967
  54    -2.5132757746201e-05
  55    0.0001197123198232
  56    -2.7406571506975e-05
  57    1.5486596863315e-05
  58    4.5645631919637e-05
  59    0.00010094343357936
  60    8.6652030981516e-05
  61    -6.6288177408886e-05
  62    -1.6108075680876e-05
  63    -2.4386249180724e-05
  64    0.00017980640129908
  65    1.0874224474201e-05
  66    5.0939370947886e-06
  67    7.9096809873402e-06
  68    6.1502943715626e-05
  69    6.9572114084071e-05
  70    8.0258676848399e-06
  71    -7.1632978158366e-06
  72    2.595906083491e-06
  73    -4.7901910706189e-06
  74    -1.6029407120062e-05
  75    6.4465824409801e-07
  76    8.0198112055042e-05
  77    6.7293756922894e-06
  78    -3.9601589318498e-05
  79    6.5238653002791e-06
  80    -1.9699276121059e-05
  81    -1.2249397718102e-05
  82    -1.5741386947103e-05
  83    0.00013023683547875
  84    -1.7012808805136e-06
  85    2.6536643057615e-06
  86    -1.2401862729895e-05
  87    0.0001110322939975
  88    2.2781262446429e-06
  89    -5.1840782522917e-05
  90    9.2281502689261e-06
  91    -2.2024367288791e-06
  92    -1.2311549306444e-05
  93    -2.319330155767e-06
  94    -1.088667147016e-06
 Sym= A
 Ene=               5
 Spin= Alpha
 Occup=    1.00000
   1    -4.929671928558e-05
   2    3.1140023350438e-05
   3    0.0039179079289519
   4    -0.00024252288597737
   5    -5.1642657798332e-06
   6    0.00051726766522691
   7    0.00035407088615864
   8    -0.00033711603655629
   9    0.0014252046051667
  10    -6.8886944844691e-05
  11    4.384134934095e-05
  12    1.1537742863293e-05
  13    -6.7261489334927e-06
  14    2.1557417922908e-06
  15    0.00010109438056425
  16    0.00015647696326539
  17    -0.0018085828351498
  18    0.00014526122889777
  19    -3.5412916487518e-06
  20    6.1657483925536e-05
  21    0.00081955566370637
  22    0.00012908675098302
  23    -0.00029758361636719
  24    0.00012457158276838
  25    5.4158897173183e-05
  26    1.8124205711703e-06
  27    -1.659447370913e-05
  28    -1.3786126076252e-05
  29    8.0198866995974e-05
  30    6.6788092153362e-06
  31    3.9604288517938e-05
  32    -1.3797873043315e-05
  33    1.5500000325174e-05
  34    -1.6108038537469e-05
  35    -2.4385793131164e-05
  36    0.00017980754194243
  37    -1.0874893951385e-05
  38    9.3982690895249e-06
  39    4.5503870238592e-07
  40    -6.1507021753383e-05
  41    4.173773721269e-05
  42    5.6233498544542e-05
  43    1.4899608175191e-05
  44    7.3958723881151e-07
  45    9.9182720276411e-06
  46    -3.2914497448431e-06
  47    -2.5703075342256e-06
  48    -1.2249838601087e-05
  49    -1.5740830911819e-05
  50    0.00013024499467685
  51    1.6981147396498e-06
  52    -9.4143798436022e-06
  53    8.4986647515041e-06
  54    -0.00011103808865361
  55    -4.3756706970167e-05
  56    2.789085227427e-05
  57    9.5867914290377e-06
  58    -1.5850150020676e-07
  59    -1.2072522979407e-05
  60    -2.1123734751597e-06
  61    2.4515968410865e-06
  62    0.00010774076750671
  63    0.00020094705164984
  64    -0.000762749189372
  65    -4.2781625261056e-06
  66    -3.5376005050596e-05
  67    3.3589892749843e-05
  68    -6.7056017278669e-05
  69    -0.00010446393055478
  70    -0.00039518871531912
  71    -1.2996532033873e-05
  72    -1.7463516268233e-05
  73    -2.7164258607864e-05
  74    1.7156640440059e-06
  75    3.7087196297538e-06
  76    -0.00024286235856522
  77    -0.0001478729805031
  78    -5.9686851757694e-06
  79    4.5315362946676e-05
  80    -0.00017566554585991
  81       1.0010153114531
  82    -0.004015250590857
  83    -0.011130499733978
  84    0.0011452147385723
  85    3.816260207545e-05
  86    -0.0027976794456454
  87    2.5181728751354e-05
  88    3.6090038876339e-05
  89    0.00011701186008465
  90    -0.00013391592209793
  91    8.0226067439855e-05
  92    1.3358221566609e-06
  93    3.890185412857e-07
  94    -6.3865190333536e-06
 Sym= A
 Ene=               6
 Spin= Alpha
 Occup=    1.00000
   1    -0.0015774629518829
   2    -0.012978593359966
   3     -0.02223683819689
   4     0.019206692387683
   5     0.036658919220009
   6     0.015527906281674
   7     0.014752432431969
   8     0.040545134089615
   9      0.02076938695587
  10     0.012180100212621
  11     0.019507521286449
  12     0.032096718631904
  13    -0.010024251801193
  14    -0.0070087132360846
  15    -0.0019127532547781
  16    -0.019506354773379
  17    -0.031591515215193
  18     0.019293330805374
  19    0.0014399018783762
  20    -0.004837418629296
  21    -0.002946916583711
  22    0.0032985672399937
  23    -0.0037762859985664
  24    0.00033319075867488
  25    0.00039826501614422
  26    0.0003670849063294
  27    6.6032361023891e-05
  28    -0.0007920918089681
  29    -0.0086436102817056
  30     0.016439540440153
  31    -0.0024421677998272
  32    0.00081417954107679
  33     0.001762780826803
  34    -0.00096324815621714
  35    0.0015616430991778
  36     0.014156453863113
  37    -0.0058047430784354
  38    0.0049262614654603
  39    0.0042099359128324
  40    -0.0076603594410511
  41    0.0062502636003435
  42    0.0047517339679541
  43    -9.3541300476312e-05
  44    2.4117873644733e-05
  45    0.00013214413336105
  46    -0.00025533147084744
  47    0.00010579741221739
  48    0.00069248948704583
  49    0.0030186473238207
  50    0.0018410847534367
  51    -0.0030958463945199
  52    -0.0033167815938445
  53    0.00011596262232953
  54    0.0011996786600078
  55    -0.0044649426539913
  56    -0.00014761712972752
  57    6.0161171121695e-05
  58    0.00017068209306719
  59    1.7081616103671e-05
  60    -0.0004383229772355
  61    -0.00040493806708749
  62    -0.0017533193714258
  63     0.014733893288782
  64     0.051699083783685
  65    0.0034127849618887
  66     0.026377239752653
  67     0.029750742716158
  68    0.0042669018355754
  69     0.025728635442366
  70     0.029179419194107
  71    -0.00035117479754662
  72    0.00066740330895484
  73    0.00029585540293312
  74    9.5604621271259e-05
  75    -0.00035372431277298
  76    -0.013514757936529
  77    -0.010812302818948
  78    0.00063081252920173
  79    -0.00084764912127892
  80    -0.00072229468591463
  81    -0.00079024477700319
  82    0.0013054513734267
  83    0.0049758647554585
  84      0.37669630534336
  85      0.52650761245591
  86      0.14134889567263
  87       0.2620574351782
  88      0.36405483612766
  89     0.096068559488538
  90    -0.0054714113939875
  91    -0.0067735415817169
  92    -0.010926649462356
  93    0.0024109053816977
  94     0.004975110489644
 Sym= A
 Ene=               7
 Spin= Alpha
 Occup=    1.00000
   1    0.00031679858887204
   2     0.018851120431073
   3     0.075205089455875
   4     0.034368406575474
   5    -0.0023217219625144
   6    -0.00076183915450942
   7     0.047016384555459
   8     0.014483312518078
   9    0.0052715983566631
  10    -0.00028360772596253
  11    -0.0010038387846043
  12    -0.00081488283413427
  13    0.00056996656293383
  14    -0.002177369552185
  15    0.0030733982398468
  16     0.002846507235005
  17    -0.040203192281414
  18     0.011478835742072
  19    -0.010063963803906
  20     0.014606952868562
  21     0.046410230152212
  22     -0.02804120823331
  23     0.018478848043239
  24    -0.027241129398831
  25    -0.0071821247699904
  26    -0.019621542137715
  27    0.0048872779272496
  28    -0.024659195203532
  29    -0.041861970591054
  30     -0.04871386302353
  31    -0.0023191700558118
  32    0.0031799436535446
  33    -0.00038826267217729
  34    0.0008931893039302
  35    -0.0087137581410055
  36    -0.019695373218001
  37      0.46708483372923
  38    -0.094651760498181
  39      0.46895942865609
  40      0.32196025829215
  41    -0.067671724439142
  42      0.32249040055285
  43    0.0086024318615324
  44    0.0014275925762953
  45    0.0071544548575556
  46    -0.0014163517866956
  47    0.0090941713456508
  48    -0.0013629870812252
  49    0.0025283682268515
  50     0.022727176761613
  51    -0.0049151341851653
  52    -0.0095398142151819
  53    -0.00066179473653722
  54    -0.0094499957852782
  55    -0.0096603694724477
  56    0.0018348951697771
  57    -0.00051232671282595
  58    -6.291140193517e-05
  59    -0.0005088648417899
  60    0.00026438213414977
  61    -0.00039426137546693
  62    0.00067161316419472
  63    0.0064896806104102
  64     0.008105824421247
  65    0.0097879524015484
  66    0.0004377215409663
  67    -0.0051230074796834
  68    3.0635837136342e-05
  69    0.0019154894872524
  70    -0.00019543356909197
  71    0.00049020578583403
  72    0.00093391127984715
  73    0.0002325128967168
  74    -0.0012763152184199
  75    0.00069620548159594
  76    -0.0054392761830584
  77    -0.0085226935109587
  78    0.0022565747269071
  79    -0.00016071138513725
  80    -0.0012184212040184
  81    0.00066475333101248
  82    0.00034264471099756
  83    -0.0070435233131448
  84    -0.0038034978895482
  85    0.00041138306885105
  86    0.0037161672307328
  87    -0.0082458066455791
  88    -0.0022917577359322
  89    0.0049689787212084
  90    -0.00026578744821319
  91    -0.00045695087461987
  92    0.0001253758747133
  93    7.1143591804193e-05
  94    -2.8245627775218e-05
 Sym= A
 Ene=               8
 Spin= Alpha
 Occup=    1.00000
   1    0.0010307878760957
   2     0.025794525793823
   3       0.0799040176528
   4     0.032227013426334
   5    0.0063988016711191
   6    -0.0035736425870271
   7     0.017585031593424
   8    -0.0046228662031457
   9    0.0065388582829258
  10    -6.2726661047855e-05
  11    -0.0011147826420788
  12    0.00094569436946232
  13    0.00078051004180866
  14    0.0009547244768034
  15    0.0027653638121875
  16    0.0042947992689699
  17    -0.014687592855073
  18     0.010251927583405
  19    0.0070350649106908
  20     0.011159962548793
  21     0.034404433288829
  22      0.02091308197163
  23     0.014932846120636
  24     -0.02502234490338
  25    -0.0082800431545676
  26      0.01840118335236
  27    0.0077855264726042
  28     0.025014104772833
  29      -0.0415515071474
  30    -0.046426918267104
  31    -0.0020017636418878
  32    -0.0029428629189353
  33    -2.6215987951229e-05
  34    -0.00098771994266746