[Molden Format]
made by pyscf v[2.0.1]
[Atoms] (AU)
C   1   6     0.00000000000000     0.00000000000000     0.00000000000000
C   2   6     2.85272299873892     0.00000000000000     0.00000000000000
H   3   1     3.62066923017674     0.00000000000000     1.90331545357504
F   4   9     3.65943188126013    -2.04308229183900    -1.24074875274501
F   5   9     3.65943188126013     2.04308229183900    -1.24074875274501
F   6   9    -0.80670888252121     1.24074875274501     2.04308229183900
H   7   1    -0.76794623143782    -1.90331545357504    -0.00000000000000
F   8   9    -0.80670888252121     1.24074875274501    -2.04308229183900
[GTO]
1 0
 s    8 1.00
                  6665  0.00069158396281299
                  1000  0.0053257961529341
                   228   0.027060721042034
                 64.71    0.10165684614077
                 21.06     0.2745748236174
                 7.495    0.44829431892377
                 2.797    0.28490261071525
                0.5215   0.015194859206082
 s    8 1.00
                  6665  -0.00029326965268655
                  1000  -0.0023180354739745
                   228  -0.011499786038565
                 64.71  -0.046826727009787
                 21.06   -0.12846616875047
                 7.495   -0.30126627246289
                 2.797   -0.25563070233011
                0.5215      1.093793361012
 s    1 1.00
                0.1596                   1
 p    3 1.00
                 9.439   0.056979251590039
                 2.002    0.31320721150073
                0.5456    0.76037674173753
 p    1 1.00
                0.1517                   1
 d    1 1.00
                  0.55                   1

2 0
 s    8 1.00
                  6665  0.00069158396281299
                  1000  0.0053257961529341
                   228   0.027060721042034
                 64.71    0.10165684614077
                 21.06     0.2745748236174
                 7.495    0.44829431892377
                 2.797    0.28490261071525
                0.5215   0.015194859206082
 s    8 1.00
                  6665  -0.00029326965268655
                  1000  -0.0023180354739745
                   228  -0.011499786038565
                 64.71  -0.046826727009787
                 21.06   -0.12846616875047
                 7.495   -0.30126627246289
                 2.797   -0.25563070233011
                0.5215      1.093793361012
 s    1 1.00
                0.1596                   1
 p    3 1.00
                 9.439   0.056979251590039
                 2.002    0.31320721150073
                0.5456    0.76037674173753
 p    1 1.00
                0.1517                   1
 d    1 1.00
                  0.55                   1

3 0
 s    3 1.00
                 13.01   0.033498726389998
                 1.962    0.23480080117413
                0.4446     0.8136829578829
 s    1 1.00
                 0.122                   1
 p    1 1.00
                 0.727                   1

4 0
 s    8 1.00
                 14710  0.00072067370873197
                  2207  0.0055504869689163
                 502.8   0.028254207662589
                 142.6    0.10639582836653
                 46.47    0.28668420124307
                  16.7    0.44843796582416
                 6.356    0.26464118141135
                 1.316   0.015326060993048
 s    8 1.00
                 14710  -0.00032119389049893
                  2207  -0.0025461915683188
                 502.8  -0.012643359507821
                 142.6   -0.05195749170489
                 46.47   -0.14344713812646
                  16.7   -0.33243762329603
                 6.356   -0.21865906750347
                 1.316     1.0955904138622
 s    1 1.00
                0.3897                   1
 p    3 1.00
                 22.67   0.064834021493887
                 4.977    0.34053535983101
                 1.347    0.73464640679382
 p    1 1.00
                0.3471                   1
 d    1 1.00
                  1.64                   1

5 0
 s    8 1.00
                 14710  0.00072067370873197
                  2207  0.0055504869689163
                 502.8   0.028254207662589
                 142.6    0.10639582836653
                 46.47    0.28668420124307
                  16.7    0.44843796582416
                 6.356    0.26464118141135
                 1.316   0.015326060993048
 s    8 1.00
                 14710  -0.00032119389049893
                  2207  -0.0025461915683188
                 502.8  -0.012643359507821
                 142.6   -0.05195749170489
                 46.47   -0.14344713812646
                  16.7   -0.33243762329603
                 6.356   -0.21865906750347
                 1.316     1.0955904138622
 s    1 1.00
                0.3897                   1
 p    3 1.00
                 22.67   0.064834021493887
                 4.977    0.34053535983101
                 1.347    0.73464640679382
 p    1 1.00
                0.3471                   1
 d    1 1.00
                  1.64                   1

6 0
 s    8 1.00
                 14710  0.00072067370873197
                  2207  0.0055504869689163
                 502.8   0.028254207662589
                 142.6    0.10639582836653
                 46.47    0.28668420124307
                  16.7    0.44843796582416
                 6.356    0.26464118141135
                 1.316   0.015326060993048
 s    8 1.00
                 14710  -0.00032119389049893
                  2207  -0.0025461915683188
                 502.8  -0.012643359507821
                 142.6   -0.05195749170489
                 46.47   -0.14344713812646
                  16.7   -0.33243762329603
                 6.356   -0.21865906750347
                 1.316     1.0955904138622
 s    1 1.00
                0.3897                   1
 p    3 1.00
                 22.67   0.064834021493887
                 4.977    0.34053535983101
                 1.347    0.73464640679382
 p    1 1.00
                0.3471                   1
 d    1 1.00
                  1.64                   1

7 0
 s    3 1.00
                 13.01   0.033498726389998
                 1.962    0.23480080117413
                0.4446     0.8136829578829
 s    1 1.00
                 0.122                   1
 p    1 1.00
                 0.727                   1

8 0
 s    8 1.00
                 14710  0.00072067370873197
                  2207  0.0055504869689163
                 502.8   0.028254207662589
                 142.6    0.10639582836653
                 46.47    0.28668420124307
                  16.7    0.44843796582416
                 6.356    0.26464118141135
                 1.316   0.015326060993048
 s    8 1.00
                 14710  -0.00032119389049893
                  2207  -0.0025461915683188
                 502.8  -0.012643359507821
                 142.6   -0.05195749170489
                 46.47   -0.14344713812646
                  16.7   -0.33243762329603
                 6.356   -0.21865906750347
                 1.316     1.0955904138622
 s    1 1.00
                0.3897                   1
 p    3 1.00
                 22.67   0.064834021493887
                 4.977    0.34053535983101
                 1.347    0.73464640679382
 p    1 1.00
                0.3471                   1
 d    1 1.00
                  1.64                   1

[5d]
[7f]
[9g]

[MO]
 Sym= A
 Ene=               0
 Spin= Alpha
 Occup=    1.00000
   1       1.0018739495461
   2    -0.00091941651592469
   3    -0.0096947771562043
   4    -0.00016754749730373
   5    0.0029998709572209
   6    4.7490824421061e-05
   7    -0.0017129680119206
   8    0.0014734692397123
   9    4.6450477724432e-05
  10    0.00030927358285632
  11    9.176764195213e-06
  12    1.0581619486215e-05
  13    -7.4037715024966e-05
  14    -0.00010941872157861
  15    -0.00020934214488423
  16    -0.00086218328587133
  17    0.0028726862100911
  18    0.0010867634292642
  19    7.2486699309389e-05
  20    7.0945987552166e-05
  21    -0.0013129719968631
  22    -9.6426268135115e-05
  23    -0.00033918780228021
  24    8.9528420050975e-05
  25    -2.8017844693612e-05
  26    1.1616564742516e-05
  27    -0.00018695261580111
  28    2.2348497742899e-05
  29    0.00010589694173174
  30    0.00062025025145299
  31    -7.5359611777834e-05
  32    9.6419445961908e-07
  33    -5.5186306921219e-05
  34    8.2956488123742e-06
  35    0.00012193744827211
  36    -2.063095812848e-05
  37    -0.00028491806429709
  38    5.636566678764e-05
  39    7.067007914169e-05
  40    -0.00032348644481229
  41    -1.0976035658442e-05
  42    2.406584158868e-05
  43    -7.5106718011764e-06
  44    3.731776811974e-06
  45    1.5278976632606e-05
  46    1.0664230085878e-05
  47    -4.5765462689175e-07
  48    -4.0255953877488e-06
  49    2.0916879343362e-05
  50    -0.00013834350094408
  51    -0.00011403475828016
  52    -3.5817860285573e-05
  53    -1.8382022424633e-05
  54    -0.00018435615486258
  55    7.2061901729738e-05
  56    -3.5205950892188e-05
  57    -1.2134712231813e-05
  58    -1.9519263145707e-06
  59    -2.2799857022202e-06
  60    2.6555028648427e-05
  61    2.2382721533488e-06
  62    0.00013547435933708
  63    -0.00010966474017243
  64    -0.00067155736090901
  65    -0.00044768857697423
  66    0.00054544623260756
  67    0.0010621425271899
  68    -0.00042006804648325
  69    0.00069745260308217
  70    0.0015748240201724
  71    -0.00014314425009675
  72    0.00012045948941248
  73    -0.00022123914369964
  74    4.1205555526942e-05
  75    6.5779657262913e-05
  76    -0.0031013911082396
  77    0.0008221084133246
  78    5.0987952513158e-05
  79    -0.00034090955462493
  80    -1.5102878832957e-05
  81    0.00012775164874217
  82    -0.00012716844226841
  83    -0.00062409013919496
  84    -0.00044346959173445
  85    0.00055666327924595
  86    -0.0010657818339394
  87    -0.0004450329887834
  88    0.0006761716085898
  89    -0.0015758184397206
  90    -0.00014198569107634
  91    -0.00011740323308645
  92    0.00021723390530409
  93    3.7223456125986e-05
  94    6.4456386204869e-05
 Sym= A
 Ene=               1
 Spin= Alpha
 Occup=    1.00000
   1    -0.00020934155531445
   2    -0.00086218315855738
   3    0.0028726862152928
   4    -0.0010867628775648
   5    -7.094587254283e-05
   6    -7.2486717319548e-05
   7    0.0013129718753959
   8    0.00033918784843425
   9    9.6426234895995e-05
  10    0.00011714135081237
  11    2.2348411726531e-05
  12    1.1616537840344e-05
  13    -0.00017101004027085
  14    -2.8017924804249e-05
  15       1.0018739495838
  16    -0.00091941545371619
  17    -0.0096947763242339
  18    0.00016754688557316
  19    -4.7490840174779e-05
  20    -0.0029998711422622
  21    0.0017129676425036
  22    -4.6450512133823e-05
  23    -0.0014734693083604
  24    -9.051813298891e-05
  25    -0.00010941873676039
  26    1.0581673042716e-05
  27    -0.00030485759533077
  28    9.1767810531907e-06
  29    -0.0031013906824663
  30    0.0008221084431607
  31    -5.0987949714009e-05
  32    1.5102869928698e-05
  33    0.00034090951620713
  34    0.00013547435492373
  35    -0.00010966459163852
  36    -0.00067155735442201
  37    0.00044768755656668
  38    -0.0010621414465409
  39    -0.00054544799723501
  40    0.0004200673964579
  41    -0.0015748233296128
  42    -0.00069745386152228
  43    3.5887025188949e-05
  44    6.5779652013436e-05
  45    -0.0002212391518898
  46    0.00014456931944603
  47    0.00012045944699579
  48    0.00012775164406477
  49    -0.00012716843437952
  50    -0.00062409026308784
  51    0.00044346920795105
  52    0.0010657813629522
  53    -0.00055666386967093
  54    0.00044503279820813
  55     0.001575818166621
  56    -0.00067617202858559
  57    3.8756369864156e-05
  58    6.4456377551538e-05
  59    0.00021723390155117
  60    0.00014157493053662
  61    -0.00011740320750697
  62    8.2956577054765e-06
  63    0.0001219372786875
  64    -2.0631201120858e-05
  65    0.00028491542481348
  66    -7.067025974228e-05
  67    -5.6366399489306e-05
  68    0.00032348458921114
  69    -2.4065978076224e-05
  70    1.097553894258e-05
  71    -5.4801354691076e-06
  72    -4.5761903938326e-07
  73    1.5278983308601e-05
  74    1.1836531669229e-05
  75    3.7318012151523e-06
  76    0.00010589659605457
  77    0.00062024997752851
  78    7.5359619187685e-05
  79    5.5186282720267e-05
  80    -9.6420040747551e-07
  81    -4.0255984181489e-06
  82    2.0916825388889e-05
  83    -0.00013834362608779
  84    0.0001140340242908
  85    1.8382366677246e-05
  86    3.581797069966e-05
  87    0.00018435563042624
  88    3.5206178780489e-05
  89    -7.2061849649244e-05
  90    -1.692996827581e-05
  91    2.2382618139852e-06
  92    -2.2799774391158e-06
  93    2.3786489103391e-05
  94    -1.951920548914e-06
 Sym= A
 Ene=               2
 Spin= Alpha
 Occup=    1.00000
   1    -4.2105029612677e-05
   2    5.4414600671411e-05
   3    0.0038542222318833
   4    -0.00025552195461201
   5    0.00027099716609036
   6    0.00047010274564821
   7    0.00032516102410998
   8    0.0010432040486286
   9    0.0010676440268459
  10    -2.9727628207143e-05
  11    2.8748010892817e-05
  12    -6.5063033249349e-05
  13    2.6360657270299e-05
  14    3.7960395875063e-06
  15    8.2181754460532e-05
  16    0.00012518934959533
  17     -0.00162332219761
  18    0.00014270400364346
  19    2.4914378139662e-05
  20    4.0089672992831e-05
  21    0.00079724763564804
  22    -0.00022469340501383
  23    -0.00012127177562838
  24    9.6338943609612e-05
  25    3.5344111525902e-05
  26    4.9068005497346e-05
  27    -4.9038510954984e-05
  28    1.6663850163658e-05
  29    5.4461432192282e-05
  30    -8.9521440492685e-05
  31    5.0988445398811e-05
  32    -6.236630603468e-07
  33    1.1401111782131e-05
  34    -3.0145434959309e-05
  35    -5.1266483631776e-05
  36    0.00017026929879691
  37    2.2858091699977e-05
  38    6.2352388599654e-06
  39    4.5103023366504e-06
  40    -0.0001729504802191
  41    3.7727131977101e-05
  42    2.2209835106678e-05
  43    6.6873430705047e-06
  44    -3.0643544007726e-07
  45    5.5110038795696e-06
  46    3.0501085028675e-06
  47    2.9156542001674e-06
  48    7.9575363300849e-06
  49    2.0924685001461e-05
  50    0.00010482907613784
  51    -3.8406762584991e-05
  52    -3.8683190986099e-07
  53    7.7959638099381e-06
  54    5.351015414336e-05
  55    -5.0637847763544e-05
  56    8.6919235982693e-06
  57    1.1089849621333e-05
  58    7.4496697675757e-06
  59    -3.6975851565704e-06
  60    -1.4271659490648e-05
  61    3.4214834246459e-06
  62       1.0010166650048
  63    -0.004216823081091
  64     -0.01140025223597
  65     0.001090936946075
  66    -0.0015617637967724
  67    -0.0024926684122676
  68    -2.5204222580948e-05
  69    -5.719705968728e-05
  70     7.63578990072e-05
  71    -8.2907205558172e-05
  72    6.8450503203325e-05
  73    -9.8685335023067e-05
  74    2.5345593168639e-05
  75    4.5062649633888e-05
  76    -0.00022595960180791
  77    -0.0001402313221501
  78    -2.7686246422813e-07
  79    -0.00012006627765693
  80    -0.00013043708523742
  81    0.00010479003017845
  82    0.00019481150267939
  83    -0.00075706218713204
  84    -9.489549353525e-06
  85    4.9101430056269e-05
  86    1.0588156337237e-05
  87    -4.7266367441852e-05
  88    -0.00011520998922043
  89    -0.00040113424107791
  90    -2.9649597444953e-05
  91    -1.2947221581189e-05
  92    3.9912763400023e-06
  93    -7.3719909643861e-06
  94    -1.24066908547e-05
 Sym= A
 Ene=               3
 Spin= Alpha
 Occup=    1.00000
   1    8.2181711169712e-05
   2    0.00012518858353799
   3    -0.0016233238660959
   4    -0.00014270482681509
   5    -4.0089437206619e-05
   6    -2.4914338633617e-05
   7    -0.00079724745583132
   8    0.00012127232744419
   9    0.00022469311324339
  10    -5.7008435440682e-06
  11    1.6663835789394e-05
  12    4.9067969377819e-05
  13    -0.00010795113326097
  14    3.5344090522517e-05
  15    -4.21051673142e-05
  16    5.4413899225406e-05
  17    0.0038542214108166
  18    0.0002555210387203
  19    -0.00047010374828464
  20    -0.00027099602022968
  21    -0.00032516164262453
  22    -0.0010676455886757
  23    -0.0010432030907951
  24    -7.9659100351251e-06
  25    3.7966350168291e-06
  26    -6.5063399069211e-05
  27    3.892407365524e-05
  28    2.8748509461693e-05
  29    -0.00022595999532487
  30    -0.00014023159531009
  31    2.7682254408763e-07
  32    0.00013043713687848
  33    0.00012006625019366
  34       1.0010166650415
  35    -0.004216818783463
  36    -0.011400247172683
  37    -0.0010909512424165
  38    0.0024926521054341
  39    0.0015617774402596
  40    2.5194264354879e-05
  41    -7.6369112237483e-05
  42    5.7206495332049e-05
  43    1.9503957278881e-05
  44    4.5062360100333e-05
  45    -9.8685271599636e-05
  46    8.4472937308597e-05
  47    6.8450378800199e-05
  48    0.00010478996913591
  49    0.0001948120564074
  50    -0.00075706022539512
  51    9.4892183793453e-06
  52    -1.0589360161049e-05
  53    -4.9101000280557e-05
  54    4.7266116942939e-05
  55    0.00040113296705519
  56    0.00011521036950383
  57    2.1209129959214e-05
  58    -1.2406670497593e-05
  59    3.991264522854e-06
  60    2.1991326090814e-05
  61    -1.2947203663191e-05
  62    -3.0145336686983e-05
  63    -5.1266399932293e-05
  64    0.00017026963904588
  65    -2.2859259977775e-05
  66    -4.5120199774231e-06
  67    -6.2350399786573e-06
  68    0.00017294961888182
  69    -2.2211115331128e-05
  70    -3.7727100097722e-05
  71    -5.9851385652285e-06
  72    2.9156917916163e-06
  73    5.5110314905051e-06
  74    -4.2663933363256e-06
  75    -3.0642612882819e-07
  76    5.446097950174e-05
  77    -8.9520442627841e-05
  78    -5.0988306553346e-05
  79    -1.1401145189652e-05
  80    6.2364522761683e-07
  81    7.9575347744433e-06
  82    2.0924794586763e-05
  83    0.00010482932935774
  84    3.8406891586015e-05
  85    -7.7960020852074e-06
  86    3.8707004428216e-07
  87    -5.3509988193074e-05
  88    -8.6919624915211e-06
  89    5.0638110961001e-05
  90    6.8147071488478e-06
  91    3.4214769824985e-06
  92    -3.6975869202948e-06
  93    -1.6739920326801e-05
  94    7.4496759537776e-06
 Sym= A
 Ene=               4
 Spin= Alpha
 Occup=    1.00000
   1    6.6358193418331e-05
   2    9.1390480460948e-05
   3    -0.0015665410514815
   4    -0.00014893153073619
   5    5.4459955056508e-06
   6    1.2656429721878e-06
   7    -0.00061185004076166
   8    -0.00037286480791626
   9    0.00030591659222991
  10    7.5704876670239e-06
  11    3.6930655106542e-05
  12    -5.9022995705968e-05
  13    -8.2236045382132e-05
  14    -9.9374161614885e-07
  15    -4.0193953445151e-05
  16    5.1826420291502e-05
  17    0.0036955790363685
  18    0.00027145213495777
  19    0.00045368435963317
  20    -0.00027634885319101
  21    -0.00026481333075009
  22    0.0011572920347015
  23    -0.0010004443236215
  24    8.1939728908427e-06
  25    2.2133272279998e-05
  26    6.1603016258609e-05
  27    4.5602341475213e-05
  28    -3.0868570700725e-05
  29    -0.00024399434908324
  30    -0.00014032193995757
  31    7.2507853138217e-06
  32    -0.00013802210434718
  33    0.00012256079237981
  34    0.0001005108209383
  35    0.00018462238610986
  36    -0.00071261453820813
  37    3.1446792753329e-06
  38    3.950591352643e-06
  39    -4.7198956442945e-05
  40    7.0874404102582e-05
  41    -0.00038818726559359
  42    0.00011627214722854
  43    2.2288407824181e-05
  44    -1.159347039603e-05
  45    -3.7339124957643e-06
  46    1.8840064946819e-05
  47    1.3500429382059e-05
  48       1.0010089568927
  49    -0.0041452242480654
  50    -0.011268024996405
  51    -0.0010798112683963
  52    -0.0025087156497292
  53    0.0014555324347993
  54    -1.5435987743039e-05
  55    7.7608184993905e-05
  56    -5.6605516481922e-05
  57    1.4795976916438e-05
  58    5.079734361954e-05
  59    0.00010162372031293
  60    8.3803928274694e-05
  61    -7.0141518090228e-05
  62    6.2099940952797e-06
  63    1.8907282598087e-05
  64    9.431356167891e-05
  65    3.2252151726146e-05
  66    -7.3781260213996e-06
  67    -6.1059365284756e-06
  68    -3.0558849283096e-05
  69    3.7297732599598e-06
  70    -5.9418680727962e-05
  71    1.4817549940833e-05
  72    5.4881508254596e-06
  73    3.2535632545209e-06
  74    -8.9279601911352e-06
  75    -4.9094967288882e-06
  76    3.7411380896244e-05
  77    1.1491600011721e-05
  78    1.9510721507795e-05
  79    1.1289867227415e-05
  80    -5.0233860888121e-05
  81    -3.2764086152424e-05
  82    -6.0959310581647e-05
  83    0.00026720833356799
  84    1.8461019392244e-05
  85    1.026781870183e-05
  86    -3.9883839867065e-05
  87    -4.21456957001e-05
  88    3.1098098518547e-06
  89    9.7650336196155e-05
  90    4.4712789947596e-06
  91    -5.2115819825137e-06
  92    4.3019679187918e-06
  93    -2.1763618314212e-05
  94    8.5002876617195e-07
 Sym= A
 Ene=               5
 Spin= Alpha
 Occup=    1.00000
   1    -4.0193902974627e-05
   2    5.1827355452633e-05
   3    0.0036955817422599
   4    -0.00027145266175676
   5    0.00027635061689525
   6    -0.00045368309399225
   7    0.0002648143869886
   8    0.0010004461044411
   9    -0.0011572896944193
  10    -4.3591656585304e-05
  11    -3.0868957414805e-05
  12    6.1601990972474e-05
  13    1.5703911696887e-05
  14    2.2132885545513e-05
  15    6.6358338044168e-05
  16    9.1390552186567e-05
  17    -0.0015665434125838
  18    0.0001489317061699
  19    -1.2657936041459e-06
  20    -5.4460648870623e-06
  21    0.00061185157552979
  22    -0.00030591705797802
  23    0.00037286476772001
  24    6.7433272828181e-05
  25    -9.9379353151224e-07
  26    -5.9023037393488e-05
  27    -4.7674240027907e-05
  28    3.6930651598674e-05
  29    3.7411273869059e-05
  30    1.1491204306432e-05
  31    -1.9510657130126e-05
  32    5.023386261789e-05
  33    -1.1289831240757e-05
  34    6.2099837115522e-06
  35    1.8907273212771e-05
  36    9.4313646367569e-05
  37    -3.2252165036795e-05
  38    6.1060131354015e-06
  39    7.378188184864e-06
  40    3.0558606255198e-05
  41    5.9418744293491e-05
  42    -3.729651396135e-06
  43    3.2306575088719e-07
  44    -4.9095112171399e-06
  45    3.2535703778671e-06
  46    -1.7296357095608e-05
  47    5.4881555768987e-06
  48    -3.276404128143e-05
  49    -6.0959437153358e-05
  50    0.0002672087903848
  51    -1.8460550780398e-05
  52    3.9883212221872e-05
  53    -1.0268458524158e-05
  54    4.2145738222526e-05
  55    -9.7650747090108e-05
  56    -3.110149286408e-06
  57    1.6612174686548e-05
  58    8.5003359784697e-07
  59    4.3019703056304e-06
  60    -1.4754029202821e-05
  61    -5.2115995294769e-06
  62    0.00010051093291851
  63    0.00018462179416349
  64    -0.00071261731241169
  65    -3.1453686221359e-06
  66    4.7201275412678e-05
  67    -3.9501263319431e-06
  68    -7.0875138936236e-05
  69    -0.00011627036153078
  70    0.0003881881797272
  71    -2.7460125917016e-05
  72    1.3500424772348e-05
  73    -3.7339598128935e-06
  74    -9.8823060320846e-06
  75    -1.1593471775519e-05
  76    -0.00024399215749247
  77    -0.00014031984505452
  78    -7.2509167483413e-06
  79    -0.00012256083147491
  80    0.00013802195286119
  81       1.0010089567987
  82    -0.004145229385591
  83    -0.011268030803605
  84    0.0010798136464922
  85    -0.0014555014771628
  86    0.0025087362953932
  87    1.5437586104153e-05
  88    5.6626850551193e-05
  89    -7.759400401533e-05
  90    -7.9973693558857e-05
  91    -7.01413303766e-05
  92    0.00010162403745561
  93    2.9088630365415e-05
  94    5.0797577980765e-05
 Sym= A
 Ene=               6
 Spin= Alpha
 Occup=    1.00000
   1    0.00068913738693615
   2     0.020091201104386
   3     0.073187560526731
   4     0.037404339611596
   5    0.0029381922182975
   6    -0.0035228325498445
   7     0.047142103067637
   8    -0.016506428764513
   9    0.00088959754655068
  10    0.00033765163223596
  11    -0.0019762302583677
  12    0.00071393895754766
  13    0.00073651255399189
  14    0.0015253846523103
  15    0.0027642121299391
  16    0.0034762784903501
  17    -0.034360284325695
  18     0.013621842236796
  19    0.0060005370623854
  20     0.012703801188647
  21      0.04555926511244
  22     0.023565834364924
  23     0.012582451716553
  24    -0.025385228874393
  25    -0.0092415923387569
  26     0.018622885359835
  27    0.0078714389187412
  28      0.02612939138771
  29    -0.039736506975493
  30    -0.044990476923161
  31    -0.0022895375802885
  32    -0.0030778677322558
  33    -0.00062036527630998
  34    -0.00094286253220131
  35     0.001181490194509
  36      0.01487223546061
  37    -0.0044437097498343
  38    0.0052191656615657
  39    -0.0015222617062554
  40    -0.0081131712271226
  41    0.0045663767099632
  42    0.0012142634159161
  43    -0.00046677845009093
  44    -0.0001137048676926
  45    0.00046318897877837
  46    0.00028532851857532
  47    0.00045243387993083
  48    0.00098915341398201
  49    -0.0077149324882522
  50    -0.019971801658441
  51      0.50904489132975
  52     0.056608758942106
  53      0.43108513402071
  54      0.35154828235501
  55     0.041536840954296
  56      0.29563974243415
  57    0.0080201825257284
  58    0.0024066829371564
  59    -0.0068094564927514
  60    -0.0024528803354063
  61    -0.0094486184093585
  62    -0.0002384962886462
  63    -0.00064578855297248
  64    0.0010367389170684
  65    -0.0035999943203074
  66    0.00031015846934496
  67    0.0015967602534063
  68    -0.0079092264797339
  69     0.002684457358511
  70    0.00022716721273519
  71    2.9577128296096e-06
  72    -0.00043526818630981
  73    -0.0001881484735571
  74     0.000248921593799
  75    -0.00021089725932471
  76    -0.010083462874753
  77     -0.01329046475712
  78    0.0022053942335743
  79    -0.00071828462504381
  80    -0.00051608341300179
  81    0.0012876170650082
  82    0.0080416276443934
  83    0.0050499817377746
  84     0.011483872664564
  85    0.0034760902691955
  86    -0.00058691281373956
  87    -0.0009990264274038
  88    0.0018588398782592
  89    0.0032242714742284
  90    0.0010505345116696
  91    0.00060696962851587
  92    -0.00021572345378616
  93    -0.001097743102283
  94    -0.0010540281981362
 Sym= A
 Ene=               7
 Spin= Alpha
 Occup=    1.00000
   1    -0.0027642092629183
   2    -0.0034762491828481
   3     0.034360345627659
   4     0.013621769136272
   5     0.012703877651167
   6    0.0060006138822558
   7     0.045559221720843
   8     0.012582538162717
   9      0.02356593147153
  10    -0.0058758397168464
  11    -0.026129356268619
  12    -0.018622918989138
  13    -0.025919979447889
  14     0.009241548195477
  15    -0.00068912796523171
  16    -0.020091166106025
  17    -0.073187552074605
  18     0.037404269933257
  19    -0.0035228110738945
  20    0.0029381960793397
  21     0.047142082588811
  22    0.00088958771833082
  23    -0.016506385023782
  24    0.0008066502738234
  25    -0.0015253780155257
  26    -0.00071393181578119
  27    -7.5855659694039e-05
  28    0.0019762227440742
  29     0.010083423482489
  30     0.013290406034307
  31    0.0022053923099736
  32    -0.00051608292013678
  33    -0.00071828154392064
  34    0.00023849467288048
  35    0.00064579696467683
  36    -0.0010367027263774
  37    -0.0035999981887114
  38    0.0015967799703862
  39    0.00031015862858211
  40    -0.0079092325763259
  41    0.0002271893304845
  42    0.0026844583500955
  43    0.00021705063607882
  44    0.00021089631474753
  45    0.0001881485314464
  46    -0.00012189907035502
  47    0.00043526741416122
  48    -0.0012876188790106
  49    -0.0080416345365542
  50    -0.0050499610671038
  51     0.011483726611281
  52    -0.00058674675896296
  53    0.0034763082521084
  54    -0.00099912653124478
  55    0.0032243795259261
  56    0.0018589969650743
  57    -0.00042540220812798
  58    0.0010540224634497
  59    0.00021572080309118
  60     0.001458664251946
  61    -0.00060696830092202
  62    0.00094286738681577
  63    -0.0011815310615154
  64    -0.014872379951158
  65    -0.0044437549348103
  66    -0.0015222646221161
  67    0.0052192729381239
  68    -0.0081132067792814
  69    0.0012142665198755
  70    0.0045664840724271
  71    1.371282308943e-05
  72    -0.00045243204698231
  73    -0.00046318956978719
  74    -0.00054690754582084
  75    0.00011370362200066
  76     0.039736540142867
  77     0.044990513970835
  78    -0.0022895400083207
  79    -0.0006203662778391
  80    -0.0030778704341741
  81    -0.00098918711471365
  82    0.0077149261914173
  83     0.019971778022863
  84      0.50904390078697
  85      0.43108615936166
  86     0.056609817841077
  87      0.35154759614773
  88      0.29564045213322
  89     0.041537563122862
  90    0.0018858682239418
  91    0.0094486088587923
  92    0.0068094624018042
  93     0.008172126678322
  94    -0.0024066624398594
 Sym= A
 Ene=               8
 Spin= Alpha
 Occup=    1.00000
   1    0.0022547245884891
   2     0.023359188040532
   3     0.057524054347496
   4     0.030551458893789
   5    -0.0016816003661065
   6    0.00067714181286488
   7     0.026176070536855
   8      0.01849394161251
   9     0.015370622170181
  10    -0.00080006544678405
  11    -0.00088492225034343
  12    -0.0012534979605331
  13      0.00123236713182
  14    -0.00054456922552017
  15    0.0022732954679447
  16    0.0018358172314953
  17    -0.019448715487837
  18    0.0072067887460886
  19    -0.011000823988411
  20     0.015262141352548
  21     0.034017720802456
  22    -0.029208683099622
  23     0.016603354705364
  24    -0.027561692715855
  25    -0.0060459601139439
  26    -0.019989318864659
  27    0.0032574401974072
  28    -0.022672248067945
  29    -0.043316870615368
  30    -0.048943305459106
  31    -0.002078887025754
  32    0.0032362566084126
  33    -3.0501343922585e-06
  34    0.0011895055453504