[Molden Format]
made by pyscf v[2.0.1]
[Atoms] (AU)
C   1   6     0.00000000000000     0.00000000000000     0.00000000000000
C   2   6     2.85272299873892     0.00000000000000     0.00000000000000
H   3   1     3.62066923017674     0.00000000000000     1.90331545357504
F   4   9     3.65943188126013    -2.04308229183900    -1.24074875274501
F   5   9     3.65943188126013     2.04308229183900    -1.24074875274501
F   6   9    -0.80670888252121    -0.76755391149953     2.26373667011121
H   7   1    -0.76794623143782    -1.22342759088295    -1.45802422671364
F   8   9    -0.80670888252121     2.36262976149657    -0.36279929541696
[GTO]
1 0
 s    8 1.00
                  6665  0.00069158396281299
                  1000  0.0053257961529341
                   228   0.027060721042034
                 64.71    0.10165684614077
                 21.06     0.2745748236174
                 7.495    0.44829431892377
                 2.797    0.28490261071525
                0.5215   0.015194859206082
 s    8 1.00
                  6665  -0.00029326965268655
                  1000  -0.0023180354739745
                   228  -0.011499786038565
                 64.71  -0.046826727009787
                 21.06   -0.12846616875047
                 7.495   -0.30126627246289
                 2.797   -0.25563070233011
                0.5215      1.093793361012
 s    1 1.00
                0.1596                   1
 p    3 1.00
                 9.439   0.056979251590039
                 2.002    0.31320721150073
                0.5456    0.76037674173753
 p    1 1.00
                0.1517                   1
 d    1 1.00
                  0.55                   1

2 0
 s    8 1.00
                  6665  0.00069158396281299
                  1000  0.0053257961529341
                   228   0.027060721042034
                 64.71    0.10165684614077
                 21.06     0.2745748236174
                 7.495    0.44829431892377
                 2.797    0.28490261071525
                0.5215   0.015194859206082
 s    8 1.00
                  6665  -0.00029326965268655
                  1000  -0.0023180354739745
                   228  -0.011499786038565
                 64.71  -0.046826727009787
                 21.06   -0.12846616875047
                 7.495   -0.30126627246289
                 2.797   -0.25563070233011
                0.5215      1.093793361012
 s    1 1.00
                0.1596                   1
 p    3 1.00
                 9.439   0.056979251590039
                 2.002    0.31320721150073
                0.5456    0.76037674173753
 p    1 1.00
                0.1517                   1
 d    1 1.00
                  0.55                   1

3 0
 s    3 1.00
                 13.01   0.033498726389998
                 1.962    0.23480080117413
                0.4446     0.8136829578829
 s    1 1.00
                 0.122                   1
 p    1 1.00
                 0.727                   1

4 0
 s    8 1.00
                 14710  0.00072067370873197
                  2207  0.0055504869689163
                 502.8   0.028254207662589
                 142.6    0.10639582836653
                 46.47    0.28668420124307
                  16.7    0.44843796582416
                 6.356    0.26464118141135
                 1.316   0.015326060993048
 s    8 1.00
                 14710  -0.00032119389049893
                  2207  -0.0025461915683188
                 502.8  -0.012643359507821
                 142.6   -0.05195749170489
                 46.47   -0.14344713812646
                  16.7   -0.33243762329603
                 6.356   -0.21865906750347
                 1.316     1.0955904138622
 s    1 1.00
                0.3897                   1
 p    3 1.00
                 22.67   0.064834021493887
                 4.977    0.34053535983101
                 1.347    0.73464640679382
 p    1 1.00
                0.3471                   1
 d    1 1.00
                  1.64                   1

5 0
 s    8 1.00
                 14710  0.00072067370873197
                  2207  0.0055504869689163
                 502.8   0.028254207662589
                 142.6    0.10639582836653
                 46.47    0.28668420124307
                  16.7    0.44843796582416
                 6.356    0.26464118141135
                 1.316   0.015326060993048
 s    8 1.00
                 14710  -0.00032119389049893
                  2207  -0.0025461915683188
                 502.8  -0.012643359507821
                 142.6   -0.05195749170489
                 46.47   -0.14344713812646
                  16.7   -0.33243762329603
                 6.356   -0.21865906750347
                 1.316     1.0955904138622
 s    1 1.00
                0.3897                   1
 p    3 1.00
                 22.67   0.064834021493887
                 4.977    0.34053535983101
                 1.347    0.73464640679382
 p    1 1.00
                0.3471                   1
 d    1 1.00
                  1.64                   1

6 0
 s    8 1.00
                 14710  0.00072067370873197
                  2207  0.0055504869689163
                 502.8   0.028254207662589
                 142.6    0.10639582836653
                 46.47    0.28668420124307
                  16.7    0.44843796582416
                 6.356    0.26464118141135
                 1.316   0.015326060993048
 s    8 1.00
                 14710  -0.00032119389049893
                  2207  -0.0025461915683188
                 502.8  -0.012643359507821
                 142.6   -0.05195749170489
                 46.47   -0.14344713812646
                  16.7   -0.33243762329603
                 6.356   -0.21865906750347
                 1.316     1.0955904138622
 s    1 1.00
                0.3897                   1
 p    3 1.00
                 22.67   0.064834021493887
                 4.977    0.34053535983101
                 1.347    0.73464640679382
 p    1 1.00
                0.3471                   1
 d    1 1.00
                  1.64                   1

7 0
 s    3 1.00
                 13.01   0.033498726389998
                 1.962    0.23480080117413
                0.4446     0.8136829578829
 s    1 1.00
                 0.122                   1
 p    1 1.00
                 0.727                   1

8 0
 s    8 1.00
                 14710  0.00072067370873197
                  2207  0.0055504869689163
                 502.8   0.028254207662589
                 142.6    0.10639582836653
                 46.47    0.28668420124307
                  16.7    0.44843796582416
                 6.356    0.26464118141135
                 1.316   0.015326060993048
 s    8 1.00
                 14710  -0.00032119389049893
                  2207  -0.0025461915683188
                 502.8  -0.012643359507821
                 142.6   -0.05195749170489
                 46.47   -0.14344713812646
                  16.7   -0.33243762329603
                 6.356   -0.21865906750347
                 1.316     1.0955904138622
 s    1 1.00
                0.3897                   1
 p    3 1.00
                 22.67   0.064834021493887
                 4.977    0.34053535983101
                 1.347    0.73464640679382
 p    1 1.00
                0.3471                   1
 d    1 1.00
                  1.64                   1

[5d]
[7f]
[9g]

[MO]
 Sym= A
 Ene=               0
 Spin= Alpha
 Occup=    1.00000
   1       1.0018652809428
   2    -0.00094492087375088
   3    -0.0095937495420245
   4    -0.00015106607427363
   5    0.0019236831728586
   6    0.0023864743590837
   7    -0.0016410822015364
   8    0.00095851505044543
   9    0.0012637495559751
  10    8.557781855609e-05
  11    -8.9141582917599e-05
  12    -0.00023762928560936
  13    -0.00019884616152429
  14    -6.5030846834444e-05
  15    -0.00020590545518057
  16    -0.00087531742245393
  17    0.0027943119824315
  18    0.0010724006033978
  19    3.341614149756e-05
  20    0.00010992889136442
  21    -0.0012098218237249
  22    -0.00014380325777214
  23    -0.00036275208830562
  24    8.4076127652417e-05
  25    -1.3882946505065e-05
  26    3.7816613531155e-06
  27    -0.00020423642585589
  28    2.1148495488477e-05
  29    1.3899299118594e-05
  30    0.00045018351159069
  31    -6.8004170123578e-05
  32    2.780087877393e-06
  33    -3.3488750988924e-05
  34    1.6382022961445e-05
  35    0.00014638261613525
  36    -4.271079967872e-05
  37    -0.00030176487593225
  38    9.9933986725588e-05
  39    7.7677061824852e-06
  40    -0.00032530416220542
  41    -1.8950790334222e-06
  42    3.0547719070121e-05
  43    -8.5365027679769e-06
  44    -3.9738949176283e-06
  45    1.4015085062155e-05
  46    6.9799314994119e-06
  47    3.6576379453164e-06
  48    -2.3172063280473e-05
  49    1.536854608473e-05
  50    3.0023112752667e-05
  51    -0.000145391365133
  52    -8.3513914081675e-05
  53    -9.6489298053445e-06
  54    -0.00030050894640629
  55    2.4423390878516e-05
  56    -9.8445874850852e-06
  57    -1.4799244745973e-05
  58    -3.455116192651e-06
  59    -6.7916104386976e-06
  60    2.2906556219229e-05
  61    5.8675576613012e-07
  62    0.00014777111644777
  63    -8.645883172191e-05
  64    -0.00075103381211391
  65    -0.00044304263749933
  66    -0.00045632979950638
  67     0.001104653654431
  68    -0.00043653042532409
  69    -0.00078941025681589
  70     0.001561684930661
  71    -0.00022848511448462
  72    0.00012943683034143
  73    0.00014366961562077
  74    -6.8416579523598e-06
  75    -5.1325126622056e-05
  76    -0.0030806651080764
  77    0.00087986539168262
  78    5.5592182226916e-05
  79    -0.00020343243341549
  80    -0.00025724225494495
  81    0.00012534235947856
  82    -0.00012969002073074
  83    -0.00061180731142821
  84    -0.00044995440889092
  85    0.0011668566718788
  86    -0.000252551728948
  87    -0.00042639505314159
  88    0.0016320397936099
  89    -0.00050970240640405
  90    0.00014669712307903
  91    -2.6872518240108e-05
  92    6.5729742010709e-05
  93    0.00020591158800811
  94    0.00013110258737179
 Sym= A
 Ene=               1
 Spin= Alpha
 Occup=    1.00000
   1    -0.00020590331832998
   2    -0.00087529111178575
   3    0.0027943460554761
   4    -0.001072356956867
   5    -4.5066420833983e-05
   6    -0.00010568843551961
   7    0.0012098386857239
   8    0.00012300877388417
   9    0.00037032529056403
  10    0.00010827075646986
  11      2.9580023719e-06
  12    -2.9514256466831e-05
  13    -0.00019026308441996
  14    -2.5124674066151e-05
  15       1.0018652819766
  16    -0.00094490950309307
  17    -0.0095937473638398
  18    0.00015102414819014
  19    -6.0379285969135e-05
  20    -0.0030646783979317
  21    0.0016410779372244
  22    -7.8057487479166e-05
  23    -0.0015842136282824
  24    -9.8982566616786e-05
  25    -0.00011008910354291
  26    1.6340128958235e-05
  27    -0.00030539376421158
  28    -7.4823361794106e-06
  29    -0.0030806945940557
  30    0.00087984669419795
  31    -5.5592578216069e-05
  32    9.5135100155516e-06
  33    0.00032782428157143
  34    0.00014777117430587
  35    -8.6456052126283e-05
  36    -0.00075103225641179
  37    0.0004430785835311
  38    -0.0010596279205468
  39    -0.00055285100302708
  40    0.00043655732670769
  41    -0.0016085566471282
  42    -0.00068886882515289
  43    3.8101398893324e-05
  44    6.6162904262578e-05
  45    -0.00022318396637054
  46    0.00014707199634784
  47    0.00012251782458523
  48    0.00012534278016288
  49    -0.0001296917463439
  50    -0.00061180967850338
  51    0.00045001781230453
  52    0.0010562157790519
  53    -0.00055653604239042
  54    0.0004264410474648
  55    0.0015778552779775
  56    -0.00065857158793487
  57    3.8159486076657e-05
  58    6.3685742996014e-05
  59    0.00021509093884281
  60    0.00014324704632876
  61    -0.00011770459671294
  62    1.6382437523639e-05
  63    0.00014637896902977
  64    -4.2722443075096e-05
  65    0.00030175857940237
  66    7.1546442161027e-05
  67    -7.0183727774771e-05
  68    0.00032529672340729
  69    -2.1098222706568e-05
  70    -2.2178848549638e-05
  71    6.2094486464417e-06
  72    -6.9359119265943e-07
  73    -6.2769431935184e-06
  74    1.5493768467561e-05
  75    -5.3563105830481e-06
  76    1.390047525147e-05
  77    0.00045017594519859
  78    6.8004811620748e-05
  79    2.3656278260389e-05
  80    2.3866703023864e-05
  81    -2.3171964911027e-05
  82    1.5368179985657e-05
  83    3.0021343337493e-05
  84    0.00014538119922325
  85    -5.7760475369723e-05
  86    6.1133484245568e-05
  87    0.00030049907626425
  88    2.5046278710618e-05
  89    -8.1160226044804e-06
  90    -1.9615680128209e-05
  91    -2.268990262928e-06
  92    -1.6438435677907e-07
  93    2.0125922803755e-05
  94    -2.6706237218526e-06
 Sym= A
 Ene=               2
 Spin= Alpha
 Occup=    1.00000
   1    -6.0732646869199e-05
   2    1.5229352321522e-05
   3    0.0041168948598036
   4    -0.0002470249199614
   5    0.00052068099890018
   6    -8.7409968135321e-05
   7    0.00041533870160058
   8    0.0015460055378947
   9    6.1019602652918e-05
  10    4.0641841943715e-05
  11    -2.4507265047682e-05
  12    5.4393435116095e-06
  13    6.8569030899476e-05
  14    3.574657218118e-05
  15    8.4761272367753e-05
  16    0.00011453367611654
  17    -0.0018894231124242
  18    0.0001170723682811
  19    1.2744959109582e-05
  20    -4.7569916225091e-06
  21    0.00095262683693287
  22    -0.00042935951220302
  23    0.00010639812875349
  24    -1.5545897252582e-05
  25    -2.0685813145845e-06
  26    -3.4545643586469e-05
  27    -9.2143895847056e-05
  28    2.8096308597955e-05
  29    0.00014925581425857
  30    -0.00013589014693806
  31    -1.0703496598263e-05
  32    4.2193143442083e-05
  33    -1.4576910697449e-05
  34    -2.3416565125958e-05
  35    -3.6999883457568e-05
  36    0.00015098722218284
  37    2.0959579908829e-05
  38    7.5947191724795e-06
  39    1.0982068474224e-05
  40    -0.00017765941745074
  41    6.6301811817901e-05
  42    -1.4894007362047e-05
  43    -1.0340089747936e-05
  44    -1.8602099637143e-07
  45    -4.2535483956764e-06
  46    -8.4374284508635e-06
  47    -3.7501747669322e-06
  48    -4.3431528417082e-05
  49    -8.0477102212632e-05
  50    0.00030303613895735
  51    6.1411550047788e-06
  52    2.5972718440533e-05
  53    -3.1161746244169e-05
  54    -5.5308960352753e-05
  55    -4.9517292304274e-05
  56    7.5365788402211e-05
  57    1.1603553702901e-05
  58    3.812915917613e-06
  59     8.19532527356e-06
  60    -1.405937581877e-05
  61    2.5415948669071e-06
  62    0.00010769930023266
  63    0.00020076694196236
  64    -0.00077029052728289
  65    -5.015305721583e-06
  66    4.0311328269748e-05
  67    2.9998305900931e-05
  68    -6.637320025659e-05
  69    -0.00038701458337108
  70    0.00017938969657297
  71    -4.460683981769e-06
  72    -4.6464299483358e-07
  73     3.08401534045e-05
  74    8.5063150600067e-06
  75    -1.7990593087837e-05
  76    -0.00024563540512042
  77    -0.0001387454429147
  78    -3.0191434720612e-06
  79    -0.00018335783423122
  80    -7.3974127833527e-06
  81       1.0010198556836
  82    -0.0040655352225965
  83    -0.011256489851988
  84    0.0010880967393739
  85    -0.0028304290081316
  86    0.00042398394535429
  87    6.9009874838965e-06
  88    0.00011609572835587
  89    -0.00010396534582641
  90     6.05042029389e-05
  91    -1.1352037188815e-05
  92    3.8841688209178e-05
  93    0.00011301659634003
  94    8.5593813701554e-05
 Sym= A
 Ene=               3
 Spin= Alpha
 Occup=    1.00000
   1    8.4756693733633e-05
   2    0.00011454608778467
   3    -0.0018892853088138
   4    -0.00011703072586295
   5    1.2800830877244e-05
   6    -4.5326573582488e-06
   7    -0.00095255902321044
   8    -0.0003973207574636
   9    0.00019452268165177
  10    -2.4062259351841e-06
  11     1.64861302265e-05
  12    -5.2629830334285e-05
  13    -8.4556256215212e-05
  14    -2.286789798475e-05
  15    -6.078374931243e-05
  16    1.5003541264866e-05
  17    0.0041167704202317
  18    0.00024692846874038
  19    0.00045481433553146
  20    -0.00026754655041961
  21    -0.00041528442636661
  22    0.0011451092186984
  23    -0.0010405238417869
  24    -4.4756905683059e-06
  25    4.1905816960569e-06
  26    6.7493542485004e-05
  27    4.2527086263579e-05
  28    -4.3107108472517e-05
  29    -0.00024566000920207
  30    -0.00013870282574398
  31    3.0066396615667e-06
  32    -0.00013571881365692
  33    0.0001235273105608
  34    0.00010769893682082
  35    0.00020077828811411
  36    -0.0007702593652868
  37    5.0047560638403e-06
  38    1.1635375519507e-05
  39    -4.8905578619919e-05
  40    6.6360452685648e-05
  41    -0.00041174419215727
  42    0.00011134118259066
  43    2.1564944722887e-05
  44    -1.1921813018902e-05
  45    -4.9710176359646e-06
  46    2.3534761775932e-05
  47    1.3483164437464e-05
  48       1.0010199009399
  49    -0.0040629125063208
  50    -0.011253465606365
  51    -0.0010872600962493
  52    -0.0024395256587927
  53    0.0014943948452789
  54    -6.327518743391e-06
  55    0.00015661182052224
  56    4.9010620316705e-06
  57    1.570604160803e-05
  58    4.6330936508983e-05
  59    0.00010052017205614
  60    8.7158504178385e-05
  61    -7.2886396042366e-05
  62    -2.3415081922197e-05
  63    -3.7006498177267e-05
  64    0.00015094748935787
  65    -2.0975736591234e-05
  66    -1.2444954908644e-06
  67    -1.3281481476914e-05
  68    0.00017764316752395
  69    6.035876941483e-05
  70    -3.119504120054e-05
  71    -4.5404574744561e-06
  72    -2.5543095506241e-06
  73    -1.2234621887784e-05
  74    -5.0880246277727e-06
  75    2.7532820540206e-06
  76    0.00014925018460536
  77    -0.00013589869570027
  78    1.0705927800862e-05
  79    4.1691826543864e-05
  80    -1.5955117259326e-05
  81    -4.3432186205174e-05
  82    -8.0479743297656e-05
  83    0.00030303833022425
  84    -6.1452266113386e-06
  85    3.9912919963656e-05
  86    7.1843151211549e-06
  87    5.5309322984644e-05
  88    -8.6376120107952e-05
  89    -2.5909962147652e-05
  90    1.6432188110772e-05
  91    4.554566365865e-06
  92    1.5500874951346e-06
  93    -1.1270598780729e-05
  94    5.0427121368935e-07
 Sym= A
 Ene=               4
 Spin= Alpha
 Occup=    1.00000
   1    8.9580838047386e-05
   2    0.00013751129914244
   3    -0.0016901971493218
   4    -0.00014735830578513
   5    -4.3997440281943e-05
   6    -3.6493824495393e-05
   7    -0.00079513338659807
   8    0.00017661766595533
   9    0.00026766508770793
  10    1.9264584793835e-05
  11    4.8559031654794e-05
  12    8.5220469022129e-05
  13    -8.675167190678e-05
  14    2.6372027222247e-05
  15    -4.0844717294706e-05
  16    5.0565742367003e-05
  17    0.0038380250273693
  18     0.000249097245389
  19    -0.0004491244491939
  20    -0.00027074230619906
  21    -0.00033786536566828
  22    -0.0010762287230563
  23    -0.00098522034226323
  24    1.0325512469296e-05
  25    2.574181267344e-05
  26    -5.6362615500709e-05
  27    4.2177562567977e-05
  28    3.1360587963624e-05
  29    -0.00024858133585561
  30    -0.00013728620959943
  31    5.8728016992284e-06
  32    0.00013138441251379
  33    0.00012635908373828
  34       1.0010116820062
  35    -0.0040981645604655
  36    -0.011207030294957
  37    -0.0011329102119577
  38    0.0024677378717013
  39    0.0014245255415372
  40    -1.3500988611634e-05
  41    -7.4430340345882e-05
  42    -3.8336735728231e-05
  43    1.4295574631796e-05
  44    4.6892364406177e-05
  45    -0.00010167710960182
  46    8.4137765015768e-05
  47    6.5987261360485e-05
  48    0.00010356006754481
  49    0.00019175619705582
  50    -0.00073372906665862
  51    2.7223804202424e-06
  52    -6.4365855174888e-06
  53    -4.5827030714114e-05
  54    6.8599055787148e-05
  55    0.0003842000993791
  56    0.00010578693273237
  57    2.0969039056621e-05
  58    -1.1769674043598e-05
  59    3.6033975449771e-06
  60    1.9833030054116e-05
  61    -1.302759452492e-05
  62    8.0639534704787e-06
  63    2.3296035772927e-05
  64    5.8398377245163e-05
  65    1.7791238572858e-05
  66    2.0683822590513e-07
  67    -1.2479989182091e-05
  68    3.4733184485754e-05
  69    1.975192851354e-05
  70    -3.5474576173248e-05
  71    1.524666055454e-05
  72    8.3351423971558e-07
  73    1.153505140463e-06
  74    -4.533180969221e-06
  75    5.2094474608615e-06
  76    8.0946093117467e-05
  77    -1.8835269999703e-05
  78    -5.0291161697675e-05
  79    3.908770893552e-06
  80    -2.5359172553633e-05
  81    -2.2917032253362e-05
  82    -3.796428211117e-05
  83    0.00016816258217475
  84    -5.7917738657663e-06
  85    -3.3237336273361e-06
  86    9.6515965580448e-06
  87    0.00011145167731908
  88    -6.1022870234238e-05
  89    -3.0161197295864e-05
  90    -1.8179796796413e-06
  91    -3.7456547810533e-08
  92    1.4389769310632e-05
  93    -7.6420814351136e-06
  94    1.2337700515375e-06
 Sym= A
 Ene=               5
 Spin= Alpha
 Occup=    1.00000
   1    -4.0801909459138e-05
   2    5.0735823623193e-05
   3    0.0038381836915515
   4    -0.00024916798537271
   5    -0.00017007005730965
   6    0.00049629010568651
   7    0.00033793855019415
   8    -0.00019114619741359
   9    0.0014464602902639
  10    -5.9229452048358e-05
  11    3.9909031341861e-05
  12    3.9396531044584e-05
  13    2.0180941122722e-06
  14    -7.4913700410832e-06
  15    8.9583183069932e-05
  16    0.00013749613279727
  17    -0.0016903094984838
  18    0.00014739251005917
  19    -1.0252098805207e-05
  20    5.6252404634337e-05
  21    0.00079523368037633
  22    -3.6742809650684e-05
  23    -0.00031849586503873
  24    0.00011105229329532
  25    5.4139160006362e-05
  26    -4.1088140921541e-05
  27    -3.3762653850098e-05
  28    1.1013639505775e-05
  29    8.0938131066781e-05
  30    -1.89091235048e-05
  31    5.0291754550013e-05
  32    1.9295213725786e-05
  33    1.6917246597744e-05
  34    8.060962388092e-06
  35    2.3294532398161e-05
  36    5.8434620676618e-05
  37    -1.7797488665826e-05
  38    8.188088910836e-06
  39    9.4305606978227e-06
  40    -3.4750159463469e-05
  41    3.7946866265274e-05
  42    1.4477972425106e-05
  43    8.4033821499353e-06
  44    3.9870360390883e-06
  45    1.0571130314877e-05
  46    -8.4846904631342e-06
  47    -3.454386919788e-06
  48    -2.2916685970594e-05
  49    -3.7958980182804e-05
  50    0.00016817966254761
  51    5.7723690620448e-06
  52    -8.7543119241732e-06
  53    -5.2515639962997e-06
  54    -0.00011147072390612
  55    -2.7367965585349e-05
  56    6.2325879207798e-05
  57    1.4316315191765e-05
  58    7.6466328135167e-07
  59    -7.8119668702494e-06
  60    1.6722348959526e-06
  61    -9.7016702193886e-07
  62       1.0010116410978
  63    -0.0041006398483284
  64    -0.011209873254583
  65    0.0011336476868703
  66    0.00097547571635136
  67    -0.0026782627851763
  68    1.4001801716991e-05
  69    -3.1854385824118e-05
  70    7.6673056751582e-05
  71    -0.00011138066862116
  72    7.8321252693838e-05
  73    7.1262562740495e-05
  74    1.1574744716944e-05
  75    -2.0398191753643e-05
  76    -0.00024854382519268
  77    -0.00013731532153547
  78    -5.8832350706781e-06
  79    1.9415449420434e-05
  80    -0.00018124107686187
  81    0.00010356137925746
  82    0.00019174914376565
  83    -0.00073376504872509
  84    -2.7100371874629e-06
  85    2.455121158793e-05
  86    3.9230589387002e-05
  87    -6.8597224811287e-05
  88    0.00022634538554443
  89    -0.0003280065778415
  90    3.9504074645306e-06
  91    -1.7388902539522e-05
  92    2.7021172581624e-05
  93    1.0005857862828e-05
  94    2.4148230307321e-06
 Sym= A
 Ene=               6
 Spin= Alpha
 Occup=    1.00000
   1    -0.0026336509449126
   2    -0.0016461255247105
   3     0.031894555265265
   4    0.0079291994280844
   5    0.00061282678724109
   6      0.02092464266509
   7     0.038932794463741
   8    -0.010023734783599
   9     0.036411576267043
  10    -0.0057084997915367
  11    -0.010422341220663
  12     0.026907468382088
  13    -0.021987017113096
  14     0.020858230037882
  15    -0.00091944608825544
  16    -0.019102214895423
  17    -0.067102388226526
  18     0.030993117987637
  19    0.00031383159718162
  20    -0.00048190435630129
  21     0.036274992218431
  22     0.020316024291823
  23    -0.0088902296453312
  24    -0.00033707604942149
  25    -0.00085113511789576
  26    0.00037464704434517
  27    -0.0016157500106845
  28    0.0013846892726005
  29     0.001188718846743
  30     0.011413190868727
  31    0.0018394743317451
  32    -0.0012373308547372
  33    -0.00042801087136089
  34    -0.0011215157875483
  35    -0.00074683841796648
  36     0.011631286932249
  37    -0.0035171697825762
  38    0.0037506570734911
  39    0.0029917165731602
  40    -0.0067876715551082
  41     0.004214261232456
  42    0.0060346610776284
  43    7.2240571734626e-05
  44    0.00026537916965791
  45    0.00017702665615352
  46    -0.00017431567561904
  47    0.00036923081221522
  48    0.00012584113201245
  49    -0.0027976111486568
  50    -0.0089032148395161
  51    0.0040475855514137
  52    -0.0037904037544245
  53    -0.0051294717004621
  54    -0.0018216654724937
  55    -1.1393305982906e-05
  56    -0.0033394725527275
  57    -0.00025369384851358
  58    -0.00027641977837003
  59    0.00039108177293956
  60    0.00054585002736653
  61    -0.00092122112869935
  62    0.0014810370457904
  63    -0.0038578173386664
  64    -0.026822783941301
  65    -0.0047968851948022
  66    -0.0099540467563087
  67    0.0083549616438264
  68    -0.008986246461557
  69    -0.0087514978289529
  70    0.0099282419796459
  71    -0.00011921778496002
  72    -0.00021272606232065
  73     0.000394888704825
  74    -0.00068590323044697
  75    0.00027748739336042
  76     0.043276223572806
  77     0.049852501342875
  78    -0.0023181855668244
  79    0.0023096033416402
  80    -0.0022284352165653
  81    -0.0010564283221269
  82    0.0012269265773016
  83     0.011468596550729
  84      0.42523652707656
  85      0.21955074090143
  86      0.46560752442011
  87      0.29388719459549
  88      0.14960193049685
  89      0.32210315961507
  90    0.0025882376663017
  91    0.0051379146688351
  92    -0.0087688977038677
  93    0.0073683442906556
  94    -0.0069252337460762
 Sym= A
 Ene=               7
 Spin= Alpha
 Occup=    1.00000
   1    0.00085962110062884
   2     0.026621104898257
   3     0.084525809789504
   4     0.033287199312489
   5    -0.0044597108755941
   6    -0.0074853360809713
   7     0.014891866012372
   8    0.0086241253149586
   9    -0.0059526945622437
  10    0.00035725597917427
  11    -0.0011331540896686
  12    -0.0010366037173946
  13    0.0007638595010309
  14    -0.00095445657981727
  15    0.0028130793088144
  16    0.0051060953542525
  17    -0.011720534897483
  18     0.011551101635428
  19    -0.0047044005286158
  20    0.0094773077504682
  21     0.033513697469394
  22    -0.019030310693273
  23     0.014598137321053
  24    -0.023633993145546
  25    -0.0094410339809721
  26    -0.017589524097911
  27    0.0098240325141749
  28    -0.025818534724592
  29    -0.040128517932144
  30    -0.044078672775963
  31    -0.0020778462875824
  32    0.0029057267210661
  33    -0.0001518904742598
  34    0.0013757050766065
  35    -0.0088457213242421
  36    -0.021484831564273
  37      0.52897383389007
  38     -0.03428180767946
  39       0.4070577471225
  40       0.3672397519905
  41    -0.025406340349462
  42      0.28032728335885
  43    0.0074873939309948
  44    0.0022831779167188
  45    0.0065157177879051
  46    -0.0033727033872047
  47    0.0093449352302579
  48    -0.0008576372208275
  49    0.00037043305912045
  50     0.011876558255143
  51    -0.0043156469062717
  52    -0.002898310737723
  53    -0.0017935260451895
  54    -0.0068472397626746
  55    -0.0032021057358873
  56    -8.5855266817074e-05
  57    -0.00047781365861143
  58    -0.00014987477810074
  59    -0.00042730642572128
  60    0.00023345129656715
  61    -0.00042406210666693
  62    0.00046383183187439
  63    -0.00092315523894466
  64    -0.0088353548169625
  65    -0.0032373102738643
  66    -0.00078203826905222
  67    0.0052834212936896
  68    -0.0040430636496728
  69    -0.0044408850348598
  70    0.0070846833387787
  71    -0.00013706278297208
  72    -0.00041579592880056
  73    0.00028342844916113
  74    0.00021476587557302
  75    9.2573321460821e-05
  76    0.0086920436598815
  77    -0.028986814337156
  78    -0.0040166225531648
  79    0.0012057387651023
  80    0.0015512351967436
  81    0.00058983523991277
  82    -0.0024191393905272
  83    -0.016595355954779
  84    -0.0067419584693098
  85    0.0067469220184832
  86    0.00043966744661778
  87    -0.0038914278918728
  88    0.0099366777991712
  89    -0.0014997558575714
  90    -0.00017584881649663
  91    1.7962276495995e-05
  92    0.00023366633667512
  93    0.00055172364973192
  94    -0.0005787263434164
 Sym= A
 Ene=               8
 Spin= Alpha
 Occup=    1.00000
   1    -0.0028127944308683
   2    -0.0051040483420366
   3     0.011722369641121
   4     0.011549216390054
   5    0.0096971655710128
   6    0.0042385645860437
   7     0.033513271579161
   8     0.023963843345836
   9    -0.0010499396025174
  10     0.027503852092419
  11     0.023827039848931
  12     0.012266485260328
  13    -0.0075889761810663
  14    -0.013709588781279
  15    -0.00085943950828873
  16    -0.026620253203316
  17    -0.084525490367296
  18      0.03328656931607
  19     -0.00139496332911
  20    -0.0086006953088707
  21     0.014892445164543
  22    -0.010432227563611
  23    0.00098365885886226
  24    0.0010215657902717
  25    0.0014813886614367
  26    -0.00086079978105396
  27    3.2196180670525e-05
  28    -2.7690592700165e-06
  29    -0.0086917993690618
  30     0.028985890660096
  31    -0.0040165541931129
  32    7.3510689348414e-05
  33    0.0019632918024112