[Molden Format]
made by pyscf v[2.0.1]
[Atoms] (AU)
O   1   8     0.00000000000000     0.00000000000000     0.00000000000000
O   2   8     2.75227162082039     0.00000000000000     0.00000000000000
H   3   1     3.06432366844540     0.00000000000000     1.80733789576484
H   4   1    -0.31205204762501     0.90366894788242     1.56520053095466
[GTO]
1 0
 s    6 1.00
             5484.6717   0.001831099805527
             825.23495   0.013950098518422
             188.04696    0.06844509273075
               52.9645    0.23271427528445
              16.89757    0.47019295006289
             5.7996353    0.35852086192309
 s    3 1.00
             15.539616   -0.11077750382508
             3.5999336   -0.14802630511126
             1.0137618     1.1307670390447
 s    1 1.00
             0.2700058                   1
 p    3 1.00
             15.539616   0.070874299543311
             3.5999336    0.33975279781076
             1.0137618    0.72715859531445
 p    1 1.00
             0.2700058                   1
 d    1 1.00
                   0.8                   1

2 0
 s    6 1.00
             5484.6717   0.001831099805527
             825.23495   0.013950098518422
             188.04696    0.06844509273075
               52.9645    0.23271427528445
              16.89757    0.47019295006289
             5.7996353    0.35852086192309
 s    3 1.00
             15.539616   -0.11077750382508
             3.5999336   -0.14802630511126
             1.0137618     1.1307670390447
 s    1 1.00
             0.2700058                   1
 p    3 1.00
             15.539616   0.070874299543311
             3.5999336    0.33975279781076
             1.0137618    0.72715859531445
 p    1 1.00
             0.2700058                   1
 d    1 1.00
                   0.8                   1

3 0
 s    3 1.00
             18.731137    0.03349459952309
             2.8253937    0.23472694665786
             0.6401217    0.81375731841339
 s    1 1.00
             0.1612778                   1
 p    1 1.00
                   1.1                   1

4 0
 s    3 1.00
             18.731137    0.03349459952309
             2.8253937    0.23472694665786
             0.6401217    0.81375731841339
 s    1 1.00
             0.1612778                   1
 p    1 1.00
                   1.1                   1

[5d]
[7f]
[9g]

[MO]
 Sym= A
 Ene=               0
 Spin= Alpha
 Occup=    2.00000
   1      0.99552455983658
   2     0.022688304780757
   3    -0.0070160539791019
   4    0.00077648010823437
   5    0.00048248520038901
   6    0.0011521706615402
   7    -0.0026424066316422
   8    -0.00074870130486711
   9    -0.0011695326343568
  10    0.00058289045047105
  11    -0.00016477658519955
  12    0.00018420130297199
  13    -0.00079523304303292
  14    -8.3212538170244e-05
  15    -1.0055248759729e-05
  16    -0.00053144132001393
  17    0.0027261032347353
  18    -0.0002111788437087
  19    4.0003335617259e-05
  20    5.6733005993447e-05
  21    -0.0017316879618032
  22    6.9099843118146e-05
  23    0.00025482009977762
  24    7.196848661491e-05
  25    -8.4694413126653e-06
  26    -2.1138298478941e-05
  27    0.00010910438178283
  28    -2.5211558961122e-05
  29    -0.0004251512822447
  30    0.0001775217951876
  31    -1.9173374601656e-05
  32    -9.1253101763484e-06
  33    6.1594618765106e-05
  34    -0.00042995235288539
  35    0.0012245334292299
  36    -5.6473359211574e-05
  37    0.00058372763327899
  38    0.0010225094864223
 Sym= A
 Ene=               1
 Spin= Alpha
 Occup=    2.00000
   1    -9.7706093253744e-06
   2    -0.00053216704196587
   3    0.0027244463885551
   4    0.00021030554845671
   5    -3.291469508336e-06
   6    6.9100305770392e-05
   7    0.0017307063423654
   8    7.2176974413814e-05
   9    0.00025515447610825
  10    5.4847055398208e-06
  11    1.9617936051417e-05
  12    0.0001118944807419
  13    7.0740224088863e-05
  14    -1.8972833571507e-05
  15       0.9955203338468
  16     0.022698396745081
  17    -0.0070049864695788
  18    -0.00077278838971637
  19    9.7344858040233e-05
  20    0.0012311073603473
  21    0.0026453294245744
  22    1.9559382566112e-05
  23    -0.0013927072759487
  24    0.00067435455380758
  25    0.00018462923052115
  26    -1.4813469167576e-06
  27    -0.00074232541776448
  28    1.1168101294974e-05
  29    -0.00043139349053172
  30    0.0012226082795364
  31    5.6595366121106e-05
  32    3.7644105730736e-06
  33    0.0011772410138585
  34    -0.00042342502758048
  35    0.00017887671064848
  36    1.8989770191327e-05
  37    3.8783270894225e-05
  38    4.8701399997103e-05
 Sym= A
 Ene=               2
 Spin= Alpha
 Occup=    2.00000
   1    0.0013960472093722
   2    -0.0030801305406851
   3    -0.0038681485018808
   4    -0.010271504803264
   5    -0.033459405077338
   6    0.0060175162075546
   7    -0.010342221862335
   8    -0.052967581431511
   9    0.0076531228225903
  10    -0.00081159343364023
  11    -0.00089888579326944
  12    -0.0011130914047623
  13    0.0011216063847509
  14     0.014367606054974
  15    -0.033550173869099
  16     0.074795944173884
  17     0.096343019829786
  18      0.03044090067976
  19      0.65943954478343
  20    -0.060178477890769
  21     0.020374351539574
  22      0.47699001045883
  23    -0.035737924054117
  24    -0.0029492835985081
  25    0.00086004796768789
  26     0.023817957493675
  27    -0.0020163824912787
  28    -0.0089872323104535
  29    -0.014999930319418
  30    -0.016870188066635
  31    0.0011807461567621
  32      0.02117699727202
  33    -0.00085484469513733
  34    -0.012510031461565
  35    -0.0025198687458299
  36    0.00072875964891625
  37    -0.0011969778305376
  38    0.00061339870962485
 Sym= A
 Ene=               3
 Spin= Alpha
 Occup=    2.00000
   1     0.033649502176279
   2    -0.074826655545701
   3    -0.096381851149217
   4     0.030453431193831
   5      0.60118606168499
   6     -0.27757681602102
   7      0.02038335780945
   8      0.43095733904561
   9     -0.20752731429436
  10     -0.01645588181749
  11    -0.0037480557578955
  12     0.014994896479157
  13    -0.0091874366020765
  14    0.0082134496145402
  15    -0.0013969353266619
  16    0.0030820563742187
  17    0.0038723305960247
  18    -0.010274988352916
  19    -0.031985860279387
  20     0.011517443761593
  21    -0.010346064366302
  22    -0.049698376076342
  23      0.01985495113046
  24    0.0015850466851572
  25    0.0064045195064904
  26    -0.00043347425416326
  27    -0.00067535703737071
  28    -0.012892304664058
  29     0.012508706370905
  30    0.0025176327001183
  31    0.00072851824537605
  32    -0.0013433253168605
  33    6.7337814597291e-05
  34     0.015005260936841
  35     0.016876950245005
  36     0.001181181778361
  37     0.018767241648168
  38     -0.00984757101509
 Sym= A
 Ene=               4
 Spin= Alpha
 Occup=    2.00000
   1     -0.11199994702189
   2      0.24744481497067
   3      0.17643205812969
   4    -0.068746739336007
   5      0.21636183587164
   6      0.36953890961763
   7     -0.01712505498596
   8       0.1248537610749
   9      0.21588947052135
  10     0.017969299323345
  11    0.0020758041105814
  12     0.019115188593018
  13    -0.0071334309755882
  14    0.00070947926325799
  15    0.0039967144678943
  16    -0.011673938204735
  17    -0.025272991780082
  18     0.029595300637084
  19    -0.0081372847210278
  20    -0.016948217398074
  21     0.039064530301142
  22    -0.015579650973775
  23    -0.021874630310155
  24    -0.0020459084170425
  25    -0.0080508176371992
  26    0.00086898074790734
  27     0.002703430491349
  28    -0.0046630610583706
  29    -0.013094289129094
  30    -0.013465628706113
  31    0.00042490436894687
  32    -7.4643685422309e-05
  33    0.00076278668975068
  34      0.30981327050591
  35      0.11709093131089
  36     0.006255478533837
  37    -0.017393021578651
  38    -0.028742137047493
 Sym= A
 Ene=               5
 Spin= Alpha
 Occup=    2.00000
   1    0.0039967183201942
   2    -0.011673931309337
   3    -0.025272979984788
   4    -0.029595293823325
   5    -0.0014270173838607
   6    -0.018746231573472
   7    -0.039064522633777
   8    0.0025550563888651
   9    -0.026733813687442
  10    -0.0012122666069871
  11    0.0093037448487907
  12    -0.00079830211165274
  13    0.0031847330941421
  14    -1.2920335412882e-05
  15     -0.11199985792468
  16      0.24744474252682
  17       0.1764319711142
  18     0.068746711555246
  19    -0.0026053888496521
  20      0.42821105969791
  21     0.017125034703432
  22    -0.00018179141791381
  23      0.24939268434402
  24     0.027111639022442
  25    -0.002152440431683
  26    0.00083051407300812
  27    -0.0018550990487615
  28    -0.00042347498779777
  29      0.30981328263426
  30      0.11709094656147
  31    -0.0062554795140669
  32    0.00069173014875081
  33    -0.033587930603692
  34    -0.013094292290286
  35    -0.013465634153956
  36    -0.00042490390333381
  37    0.00044603668681174
  38    0.0006232709609783
 Sym= A
 Ene=               6
 Spin= Alpha
 Occup=    2.00000
   1     -0.18688308937072
   2      0.43409202543192
   3      0.50818152859586
   4     -0.16582035019804
   5     -0.07143089926467
   6     -0.35568947173834
   7     -0.12281328940454
   8    -0.039462998948122
   9     -0.23709469356471
  10    -0.010541083709724
  11    -0.0099894878692641
  12     -0.01089178865875
  13    -0.0041799800321218
  14    -0.003474717530964
  15     0.010398259549368
  16    -0.026145494627874
  17    -0.052366169140072
  18     0.046230780443295
  19    0.0054278403705066
  20     0.012470931061231
  21     0.049213083579328
  22    0.0072740143065153
  23     0.014085746102993
  24    -0.0018727903178722
  25     0.010968662046102
  26    -0.00063880432801868
  27    0.0030268414727102
  28    0.0019622993445515
  29     0.017146449872329
  30     0.029921297567503
  31    0.0031906369851248
  32    0.00015817981070454
  33    -0.00083606124399347
  34    -0.071227140124174
  35     -0.08843009452174
  36    -0.0058560060091511
  37    0.00063782851388537
  38    -0.0069598463184933
 Sym= A
 Ene=               7
 Spin= Alpha
 Occup=    2.00000
   1     0.010398388452162
   2    -0.026145714001716
   3    -0.052366575880435
   4    -0.046231565032409
   5     0.001532292250434
   6     0.013514524067977
   7    -0.049213932946385
   8    0.00073939832324274
   9     0.015836192123911
  10    -0.002304988414124
  11    -0.010480356296543
  12    0.00022538214812195
  13    0.0027774292203558
  14    -0.0037838484314699
  15     -0.18692350531512
  16      0.43409683137971
  17      0.50818907477196
  18      0.16582268226012
  19     -0.11593415575475
  20     -0.34375607322251
  21        0.122814724946
  22    -0.084335502753043
  23     -0.22506412325485
  24     -0.01385226963379
  25      0.01038856607203
  26    -0.004268110831396
  27    -0.0060916777072646
  28    0.0019848738414296
  29    -0.071228201831219
  30    -0.088431391740363
  31    0.0058560916289841
  32    -0.0040307056931345
  33    -0.0057086041006473
  34     0.017145525411567
  35      0.02992110122726
  36    -0.0031905828699098
  37    -0.00055511022965666
  38    -0.00064491577642061
 Sym= A
 Ene=               8
 Spin= Alpha
 Occup=    2.00000
   1     0.057865565501102
   2     -0.12003157010364
   3    -0.068579674897377
   4     -0.40516894982848
   5    0.0031013450728357
   6    0.0092598842783176
   7     -0.25392540312072
   8    -0.0065207958656951
   9    -0.013996230412028
  10     0.020221879726053
  11    -0.014888264191066
  12    0.0021926709494161
  13    -0.033946897294314
  14    -0.0071569061230319
  15     0.057865577615814
  16     -0.12003157289702
  17    -0.068579678781617
  18      0.40516894904254
  19    0.0019440859266445
  20    0.0095699694594058
  21      0.25392540275351
  22    -0.0013509488883579
  23    -0.015381488113103
  24     0.021632896959411
  25     0.016472067921009
  26    -0.00062936387012144
  27    -0.033132246074511
  28    0.0012460700308065
  29      0.03171679450461
  30     0.049441577272856
  31    0.0098974338986091
  32    0.00032541010170257
  33    0.0010934363428573
  34      0.03171679430871
  35     0.049441576665264
  36    -0.0098974339426344
  37    0.00026490438542603
  38    0.0011096488523823
 Sym= A
 Ene=               9
 Spin= Alpha
 Occup=    0.00000
   1     0.014396346099668
   2      -1.6163017236499
   3       3.3531639653556
   4      0.23257067413826
   5    -0.070085365630855
   6     0.040313493581949
   7      0.14944477257118
   8      0.68631003820477
   9      0.99701718907165
  10      0.19912414087043
  11     -0.14028240279902
  12      0.43058640307643
  13      0.19590902080333
  14    -0.097963637041434
  15     0.032458122474782
  16      0.15776143317884
  17     -0.88348201422957
  18      0.07717921214973
  19    -0.010081247103153
  20    -0.009853735814873
  21      0.62007173601211
  22    -0.052715059679388
  23     -0.15432727981568
  24     0.056794265333236
  25     0.047771175378821
  26    -0.0010324862806842
  27     -0.17161819581306
  28     0.032259301613686
  29      0.10301188617251
  30     0.096017082946199
  31    -0.033858148994873
  32     0.014553496314913
  33    -0.0022264170403061
  34     -0.92513554212511
  35      -1.2034799552896
  36    -0.056085407671594
  37      0.16220930332335
  38      0.28800372078778
 Sym= A
 Ene=              10
 Spin= Alpha
 Occup=    0.00000
   1     0.032227819417839
   2      0.15912549133281
   3     -0.89244568105909
   4    -0.075616961098966
   5     0.006050394324116
   6    -0.011648207461287
   7     -0.63329996279186
   8    -0.012250869836029
   9     -0.14306267510157
  10     0.072557698470438
  11    -0.052093277334942
  12    -0.028674643431559
  13     -0.16133505978073
  14     0.012504606140306
  15     0.016056779288853
  16      -1.6323086906708
  17       3.3604963834592
  18     -0.21820746437199
  19      0.11441569476993
  20     0.025799679800809
  21      -0.1847229683036
  22     -0.14025117749981
  23       1.1535662702065
  24      0.39624507441449
  25      0.18825717733191
  26    0.0035738531675557
  27      0.27826395273048
  28     0.027580975709344
  29     -0.90860155034325
  30      -1.1826571905269
  31     0.055107009206887
  32    0.0092454150781433
  33      0.32817247567132
  34     0.095909810369307
  35     0.087895713803708
  36     0.033695660041606
  37    -0.013378717234119
  38    0.0070724249801629
 Sym= A
 Ene=              11
 Spin= Alpha
 Occup=    0.00000
   1    0.0025633582890084
   2     0.035221688490102
   3    -0.044858463979064
   4    -0.0064272406826964
   5     0.014252969021997
   6     0.012648596483161
   7     -0.18507669259694
   8     0.067491331588528
   9     -0.01779588486741
  10    -0.0018892474320991
  11    -0.011423843089185
  12      0.01108658819871
  13    -0.015514669111252
  14    -0.00039121628865778
  15    0.0044517937224525
  16    -0.029633605576242
  17     -0.35709334939748
  18     0.022317916804259
  19    0.0044558480353136
  20      0.03599423354678
  21    -0.094945172564826
  22     0.026066355484978
  23    -0.057388216493116
  24      0.12174216599776
  25      0.11633220851535
  26     0.021383696396843
  27      0.04214311605163
  28    0.0041802158480658
  29      -1.0799299300138
  30       1.6073358092907
  31     -0.44572668794292
  32     -0.08997331840272
  33    -0.063881063907824
  34    -0.024482745158304
  35      -0.3450976245093
  36    -0.030017387812364
  37     0.012515282074898
  38     0.015480746148604
 Sym= A
 Ene=              12
 Spin= Alpha
 Occup=    0.00000
   1      0.01678647382432
   2    -0.046145904753718
   3     0.058168947889985
   4     0.047235935014123
   5     -0.10171504007867
   6     -0.18522862600406
   7    -0.069863488612371
   8    -0.056809651357253
   9     -0.14898450421781
  10     -0.17824297991893
  11      0.12340273338205
  12     -0.21359367721087
  13     0.013982564473288
  14     0.066677339050448
  15    -0.0028703213706778
  16    -0.030016911348658
  17     0.056742230334617
  18    -0.0098445378733688
  19    0.0093595585239772
  20    -0.013130056964254
  21     -0.17505200952764
  22     0.070160825222119
  23    -0.00042199912075463
  24    -0.0070629258671483
  25    -0.016859473291056
  26     0.013446671478859
  27    0.0048080564028586
  28    -0.0098666650045939
  29     0.023258541555813
  30      0.31576212649738
  31    -0.031528291813426
  32    0.0011079823469931
  33    -0.018763200639947
  34       1.3147808103206
  35      -1.4045110726986
  36     -0.27571154736939
  37     -0.27836151457156
  38     -0.30499885384569
 Sym= A
 Ene=              13
 Spin= Alpha
 Occup=    0.00000
   1    0.0035191247334403
   2     -0.01817632996268
   3    -0.011520579321617
   4    -0.0024954505560308
   5    0.0089231360837235
   6     0.027562956006118
   7     0.020678159494205
   8    -0.0025284936368138
   9     0.022245710555861
  10    0.0025747360764846
  11    0.0030699070467786
  12    -0.0020314982549733
  13    -0.00085953529375191
  14    0.00014065962527743
  15     0.088411117488627
  16     -0.41965285436485
  17     -0.34463561341627
  18     -0.14114480539527
  19    0.0032034498347849
  20     -0.61327004468078
  21    -0.048803937540647
  22    -0.00097031504453029
  23     -0.39598477466462
  24    -0.090234852572848
  25    -0.015506264058242
  26    -0.0014997459344295
  27    -0.0028154291737222
  28    -4.3142345713544e-05
  29      0.88018631959063
  30      0.55682707555356
  31     -0.02108107996046
  32    0.0016228004662411
  33    -0.076348923460576
  34    -0.043865059371105
  35    -0.0091513121392144
  36    0.0058661867296763
  37    -0.0017075230267909
  38    -0.0024852233819444
 Sym= A
 Ene=              14
 Spin= Alpha
 Occup=    0.00000
   1    -0.037288733335567
   2      -0.1283829639705
   3       1.2323522388453
   4      0.14190031641971
   5     0.003068884344575
   6    -0.013004249782029
   7      0.91789521334584
   8     0.057840052105844
   9     0.070409391699318
  10    -0.094587612446235
  11     0.023366154815683
  12     0.020854441319744
  13      0.18183772489138
  14     0.043858332764455
  15     0.040277996588472
  16      0.45394873625333
  17      -1.5855481601905
  18     -0.72594463218729
  19     0.054070935227994
  20      0.32865559433231
  21       1.7781958823235
  22    -0.086789641910356
  23     -0.68450110147593
  24     0.056440295862677
  25     -0.22617167772585
  26      0.03946573813592
  27     -0.14051566851917
  28      0.28807683894915
  29      0.34162951619612
  30      0.15532234439462
  31    -0.094779654860751
  32    -0.011165109469815
  33    -0.044364030256255
  34    -0.090469574345443
  35       0.1685092811563
  36    -0.0096104619255072
  37    -0.0088833490365053
  38     -0.01212272284424
 Sym= A
 Ene=              15
 Spin= Alpha
 Occup=    0.00000
   1    -0.025254420030423
   2      0.41664185581483
   3     -0.46192499743372
   4      0.25550458947779
   5    -0.038264836125539
   6     -0.71271817346061
   7      -1.0927057921613
   8      0.32366181643333
   9       1.3894511058514
  10      0.27758417739287
  11      0.34917122296202
  12      0.12903490391085
  13     -0.24492202306364
  14    -0.082744735791349
  15    -0.027654577185326
  16    -0.058833206593057
  17       0.6939004743854
  18      -0.1084709671224
  19    -0.0043067179828437
  20    -0.048364194388981
  21      -0.6652410600313
  22    -0.015606743429176
  23      -0.4097739859162
  24      -0.1256334520062
  25      0.12271945699707
  26    0.0021151116362161
  27      0.14317574446771
  28    0.0092352614933508
  29     0.096712302975569
  30       0.2098242169164
  31     0.014409579091244
  32    0.0058271491545224
  33    -0.045506123464722
  34     -0.44446997369268
  35     -0.61216682399196
  36    -0.024954605702657
  37     0.079693676158418
  38     0.062754962801982
 Sym= A
 Ene=              16
 Spin= Alpha
 Occup=    0.00000
   1    -0.039883515749033
   2     -0.46830903887469
   3       1.6089966478214
   4     -0.72075972479079
   5    -0.050807754162745
   6     -0.34722746440294
   7       1.7885365690435
   8      0.18180769114548
   9      0.67160356612211
  10      -0.1193184609628
  11    -0.090109930698601
  12     0.029781521634364
  13       0.1435568737993
  14     -0.34724681588211
  15     0.038414056564176
  16       0.1297031568189
  17      -1.2486574344097
  18      0.14703492441292
  19    0.0096614294483696
  20     0.011250006261889
  21      0.93435199597446
  22       0.0297939917222
  23    -0.089726030318901
  24     0.087573297535684
  25     0.039579578568273
  26    0.0030855058574061
  27      -0.1958685865627
  28    -0.030533175678914
  29     0.090808062133033
  30     -0.17483511331523
  31    -0.0086620706632462
  32    -0.0028465198385056
  33     0.015889050657728
  34     -0.33243786774219
  35     -0.15233917545838
  36    -0.087228376530252
  37     0.017897331499447
  38     0.036761327834078
 Sym= A
 Ene=              17
 Spin= Alpha
 Occup=    0.00000
   1     -0.02454634943434
   2      0.10439938284489
   3      0.14895735307069
   4     -0.13168189592498
   5     -0.70620551152528
   6    -0.042503556259446
   7        0.163977292046
   8       1.0160126605227
   9       0.2237981863732
  10    -0.029544299267981
  11     -0.18689382834209
  12     0.050174906896887
  13     0.018484330238987
  14      0.66394198470058
  15     0.003057341762276
  16    -0.0018379769925068
  17     -0.10174479616486
  18     0.018307085900561
  19    -0.037499883735646
  20    7.3772703891679e-05
  21     0.035109432858425
  22     -0.30159307519383
  23    -0.011966461989383
  24    0.0094348882556308
  25    -0.011853686685854
  26    -0.0075297607511982
  27    -0.015233825878705
  28      0.15928639173941
  29    -0.0028833127826433
  30      0.05232380652851
  31    0.0048511271073819
  32     0.029158519966797
  33    -0.0040485638453686
  34     -0.19108731845877
  35     -0.21715090291995
  36    -0.053759788158433
  37    -0.045572107994991
  38     0.025250254854256
 Sym= A
 Ene=              18
 Spin= Alpha
 Occup=    0.00000
   1     -0.06102171109501
   2      0.22227515620669
   3       0.9106011029738
   4    -0.070014123669137
   5      0.24737108131134
   6      0.42342900006581
   7     -0.10228841431802
   8      0.31952559536727
   9      0.52984429848245
  10      0.25009177952277
  11    -0.047422643781938
  12      0.30805449690608
  13     -0.10059936427058
  14    -0.029691933263393
  15    0.00012225227526103
  16    -0.020453257611136
  17    -0.018484738770456
  18     0.007145474404332
  19    -0.0083113618226112
  20    -0.016894675356453
  21    -0.064874747974655
  22     0.003251736200798
  23    -0.054135889315483
  24    -0.012298893660312
  25     0.016164497241184
  26    0.0028683996888982
  27      0.01233482966696
  28     0.011504211545605
  29    0.0088426203414633
  30      0.14470268753057
  31    -0.0014455015621927
  32    0.0063537127651703
  33    -0.0061933331670677
  34     -0.46575706254043
  35      -0.8744421007276
  36     -0.51748498850444
  37      0.63646645444277
  38       1.1878471542083
 Sym= A
 Ene=              19
 Spin= Alpha
 Occup=    0.00000
   1    0.00089768166805679
   2    -0.0091068035055508
   3    -0.032111126346157
   4    -0.0090775506921445
   5    0.0033868750221206
   6    -0.015447569212495
   7     0.006559331219798
   8    -0.009562818910081
   9    -0.054998146004244
  10    -0.0099066293854482
  11    -0.024272344592552
  12    -0.0021890965418776
  13     0.010669135652525
  14    0.0014612322964542
  15    -0.063326549540999
  16      0.22711246399806
  17      0.84335170087058
  18     0.083984483876256
  19    0.00099371749560415
  20      0.53376316330118
  21     0.083364306720441
  22    0.0020016594063374
  23      0.63739239725014
  24      0.47592567706054
  25      0.10468948894023
  26    0.0018698794970938
  27     0.005376743795886
  28    -3.4553316731811e-05
  29     -0.86713609201318
  30     -0.37691559198722
  31      0.37147153503785
  32    -0.010775618819702
  33       1.4153676494641
  34     0.001845261373462
  35     0.034451807200156
  36    -0.0087406851516199
  37    -0.0049517291719579
  38    0.0028096969653193
 Sym= A
 Ene=              20
 Spin= Alpha
 Occup=    0.00000
   1    -0.00058990671314232
   2    0.00056206039239423
   3     0.014834965895715
   4    -0.0015890471368429
   5     0.010345748492023
   6    0.0027684562451342
   7    -0.021876925730197
   8     0.054938051307092
   9     0.011360448782536
  10    0.0032282937972243
  11    -0.0034022669201797
  12     0.011533900202194
  13    -0.0031998383109934
  14     0.018091074857089
  15    -0.00017041278519225
  16    -0.00072651087218664
  17    -0.025040390872987
  18    0.0013011769618354
  19    -0.094211824387949
  20    0.0076560308483708
  21    -0.014390332880627
  22     -0.24214698689295
  23    -0.0023719692718913
  24     0.014820328082366
  25    0.0082681302124482
  26     -0.22559596998687
  27    0.0037918626022937
  28    -0.028837450365721
  29     -0.10320718983339
  30      0.14458342453295
  31    -0.020060862028261
  32       1.1065070009604
  33    0.0018840211235309
  34    -0.015351644467072
  35    -0.052547165038854
  36    -0.0019197695863212
  37    0.0027845797414853
  38    0.0083875568928499
 Sym= A
 Ene=              21
 Spin= Alpha
 Occup=    0.00000
   1    -0.0011678039220513
   2    0.0060001502025996
   3     0.045182158675134
   4    -0.00080489506053831
   5    -0.080079355972569
   6     0.049659020520348
   7    -0.019321722043946
   8     -0.20160006666676
   9      0.13465401764365
  10      0.16585009382217
  11    -0.0095732525858723
  12     -0.11933296822698
  13     0.095499682541548
  14     0.027719381090164
  15    0.00054040594518109
  16    -0.00093564697828253
  17    -0.013960869913297
  18    -0.0016947583051331
  19    0.0074433966093629
  20    -0.0079200830748627
  21    -0.024158831084645
  22     0.042046189046629
  23    -0.038667719078328
  24    -0.011811244661606
  25    0.0062458313497081
  26    0.0047827448373785
  27    -0.0010871412883838
  28     -0.01723938471266
  29     0.015809076272951
  30     0.056197998207561
  31    -0.0020516417029836
  32    -0.0016194770750306
  33    -0.0088668769032724
  34     0.095671340777235
  35     -0.16785209451532
  36    -0.023896057897241
  37      0.97234898387473
  38     -0.52732451721574
 Sym= A
 Ene=              22
 Spin= Alpha
 Occup=    0.00000
   1     0.011987113820267
   2     -0.31765875356172
   3      0.49264957308703
   4     -0.19854338347508
   5     -0.10801132955436
   6      0.18262657674882
   7       0.5183959028404
   8      0.13302742919673
   9     -0.18777253928567
  10      0.21482869199492
  11      0.92961347947706
  12    -0.0088866859014777
  13     -0.26455937764504
  14      0.20509742221169
  15    0.0032568419305925
  16     0.063642153000648
  17     -0.34698992881352
  18    -0.0061049586434978
  19    -0.010849782271311
  20    -0.029294223699823
  21      0.22405588875693
  22    -0.054635546517146
  23     -0.12456594797712
  24    -0.030230779317624
  25      0.11261698618248
  26    0.00023320609219152
  27    0.00028655711888629
  28      0.03699940354446
  29     0.072020864621484
  30     -0.03292038118202
  31    -0.030588066716581
  32    0.0043794373325901
  33    -0.0048130199357195
  34     0.018080173897912
  35     0.038110320829656
  36     -0.22774835833772
  37     -0.03824418993757
  38    -0.032974812234112
 Sym= A
 Ene=              23
 Spin= Alpha
 Occup=    0.00000
   1    0.0073710357417051
   2    -0.0066270486056622
   3     -0.17874101404716
   4    -0.035971242761509
   5    0.0051421754036716
   6    -0.0034442041916699
   7     -0.13393528431365
   8     0.025989503485876
   9     0.019422887749252
  10     0.021833359336592
  11    -0.031819432060174
  12     0.010472680067631
  13    -0.023719171616962
  14    -0.00025520267448019
  15      0.00685384841366
  16    -0.080904800637988
  17     -0.13742687507952
  18    -0.086215995133121
  19    0.00033934639144048
  20    -0.033933820684855
  21     -0.38949960953165
  22    0.0042257554032742
  23    -0.052680196131655
  24     0.053618277322914
  25     -0.20668668259271
  26    0.0038576057790789
  27    0.0073073397224125
  28    0.0014876848059309
  29     -0.36330112542697
  30      0.72768899156271
  31      0.97282756848367
  32    -0.014903258372333
  33     -0.40589031329632
  34    -0.038243194126403
  35    -0.095126802067912
  36    -0.015293465107655
  37    0.0094616458976859
  38    0.0080650620523583
 Sym= A
 Ene=              24
 Spin= Alpha
 Occup=    0.00000
   1     0.018231442368032
   2      0.06262255004975
   3     -0.51830929908049
   4    -0.070622068476136
   5     0.016377462936574
   6    -0.0022531366566357
   7     -0.41661002557609
   8    -0.069995535575451
   9    -0.019097496377465
  10      0.05362775937426
  11    -0.035051885691029
  12    -0.0089087961282535
  13     -0.09821321428399
  14     0.015322967285404
  15    0.0030204251053553
  16     -0.36823504279206
  17      0.72529842814771
  18       0.1620696592798
  19     -0.68287596357327
  20     0.015900854892088
  21     -0.64224733481215
  22      0.81483474743678
  23     -0.03546141386502
  24     -0.14947943174523
  25     -0.28113654909264
  26     0.012677974884508
  27      0.13415606204474
  28       0.5754493229605
  29     0.039050272154125
  30      0.02268363284695
  31     0.078022623935859
  32    -0.090401949369666
  33    -0.056183259311351
  34     0.042726268416506
  35     -0.10933784337103
  36    0.0029959017604057
  37    0.0074135546635112
  38    0.0081699530454062
 Sym= A
 Ene=              25
 Spin= Alpha
 Occup=    0.00000
   1    -0.015184595907849
   2    -0.067107604597611
   3      0.33026664309422
   4     -0.10015852777171
   5    -0.050687751638376