[Molden Format]
made by pyscf v[2.0.1]
[Atoms] (AU)
O   1   8     0.00000000000000     0.00000000000000     0.00000000000000
O   2   8     2.75227162082039     0.00000000000000     0.00000000000000
H   3   1     3.06432366844540     0.00000000000000     1.80733789576484
H   4   1    -0.31205204762501     0.90366894788242    -1.56520053095466
[GTO]
1 0
 s    6 1.00
             5484.6717   0.001831099805527
             825.23495   0.013950098518422
             188.04696    0.06844509273075
               52.9645    0.23271427528445
              16.89757    0.47019295006289
             5.7996353    0.35852086192309
 s    3 1.00
             15.539616   -0.11077750382508
             3.5999336   -0.14802630511126
             1.0137618     1.1307670390447
 s    1 1.00
             0.2700058                   1
 p    3 1.00
             15.539616   0.070874299543311
             3.5999336    0.33975279781076
             1.0137618    0.72715859531445
 p    1 1.00
             0.2700058                   1
 d    1 1.00
                   0.8                   1

2 0
 s    6 1.00
             5484.6717   0.001831099805527
             825.23495   0.013950098518422
             188.04696    0.06844509273075
               52.9645    0.23271427528445
              16.89757    0.47019295006289
             5.7996353    0.35852086192309
 s    3 1.00
             15.539616   -0.11077750382508
             3.5999336   -0.14802630511126
             1.0137618     1.1307670390447
 s    1 1.00
             0.2700058                   1
 p    3 1.00
             15.539616   0.070874299543311
             3.5999336    0.33975279781076
             1.0137618    0.72715859531445
 p    1 1.00
             0.2700058                   1
 d    1 1.00
                   0.8                   1

3 0
 s    3 1.00
             18.731137    0.03349459952309
             2.8253937    0.23472694665786
             0.6401217    0.81375731841339
 s    1 1.00
             0.1612778                   1
 p    1 1.00
                   1.1                   1

4 0
 s    3 1.00
             18.731137    0.03349459952309
             2.8253937    0.23472694665786
             0.6401217    0.81375731841339
 s    1 1.00
             0.1612778                   1
 p    1 1.00
                   1.1                   1

[5d]
[7f]
[9g]

[MO]
 Sym= A
 Ene=               0
 Spin= Alpha
 Occup=    2.00000
   1    -2.6292748869115e-05
   2    -0.00038144399674334
   3    0.0025109001321037
   4    0.00029352429854506
   5    4.9007850696179e-05
   6    -9.4267877356669e-06
   7     0.001885291369788
   8    3.517432177904e-05
   9    6.6426633742808e-05
  10    -2.8674693789163e-05
  11    9.5220261076574e-05
  12    -7.6028486082538e-05
  13    7.5904637348115e-05
  14    -2.4748420085815e-05
  15      0.99587339855587
  16     0.021901356139285
  17    -0.0080193761537914
  18    -0.0011018387501856
  19    -0.00046616915542714
  20    0.0017794829775081
  21    0.0024417586797988
  22    -0.00041159005682232
  23    -0.00081696460175238
  24    0.00070838194695715
  25    0.00014627479682394
  26    -8.4022354842327e-06
  27    -0.00072644958263574
  28    1.2034946376184e-05
  29    -0.0003215909578057
  30    0.0013772346846364
  31    2.9003684661955e-05
  32    -1.3296626044484e-05
  33     0.001173926324223
  34    -0.00038449524627645
  35    0.00047273362514839
  36    3.4960576527934e-05
  37    8.3996674190031e-06
  38    -1.8900842667711e-05
 Sym= A
 Ene=               1
 Spin= Alpha
 Occup=    2.00000
   1      0.99576555428696
   2     0.022151002846096
   3    -0.0077202027553818
   4    0.0010039045920647
   5    0.00064534207994028
   6    -0.0014432124920303
   7     -0.00251024578583
   8    -0.00064327385544276
   9    0.00073454399008779
  10    0.00059595939399846
  11    0.00012853390648609
  12    -0.00020940670577031
  13    -0.00079093008833382
  14    -8.3097523987228e-05
  15    -2.1134033127027e-05
  16    -0.00039611675568457
  17    0.0024983966231242
  18    -0.00026326243860602
  19    3.0019355931722e-05
  20    1.5413529519425e-05
  21    -0.0018525952716308
  22    5.1031081474538e-05
  23    -6.2552080580308e-05
  24    1.971846340466e-05
  25    8.7228010747478e-05
  26    2.6792967184066e-05
  27    0.00010708595442067
  28    -2.9335203920675e-05
  29    -0.00040220493193573
  30    0.00046553177825309
  31    -3.4212522097485e-05
  32    -2.5177718498934e-06
  33    2.1358658205152e-05
  34    -0.00036461565962558
  35    0.0013345889761959
  36    -3.2130878924073e-05
  37    0.00058222823061462
  38    -0.0010160975815415
 Sym= A
 Ene=               2
 Spin= Alpha
 Occup=    2.00000
   1    -0.0019148552971929
   2    0.0041213147679032
   3     0.015243544575622
   4    0.0049582135952841
   5    -0.032650747315953
   6    -0.0068569674702428
   7    0.0052946208024933
   8    -0.050218621329028
   9     -0.01282121943751
  10    0.00057058216067442
  11    5.2096818175776e-05
  12    0.0016035616864078
  13    3.2846676944585e-05
  14     0.014696360633343
  15     0.026367998006918
  16    -0.061794290160368
  17    -0.068241688135258
  18    -0.022433981817658
  19      0.66221583279196
  20     0.048226638763111
  21    -0.018516962869991
  22      0.48158614208777
  23     0.029538354394828
  24    0.00060829867709237
  25    -0.0006638962603971
  26     0.020482659848614
  27    -0.00034341396506501
  28    -0.0088055070678418
  29     0.010274259257282
  30     0.013650178827851
  31    -0.00040637927695033
  32     0.020709393921561
  33    0.00045886806139461
  34    -0.013679738168943
  35    -0.015225437546231
  36    0.00060759968638957
  37    -0.00089737536341135
  38    -0.0012420451425277
 Sym= A
 Ene=               3
 Spin= Alpha
 Occup=    2.00000
   1     0.025934173183965
   2    -0.061655664114392
   3    -0.068064034271516
   4     0.022376390185002
   5      0.59757502521324
   6      0.28946299861367
   7     0.018477328591184
   8      0.43181433646974
   9      0.21529396577749
  10    -0.014910264867729
  11    0.0038312255166747
  12    -0.010544992134531
  13    -0.0093022763168601
  14    0.0079564293428478
  15    -0.0019117999409466
  16    0.0041126999665022
  17      0.01523277600527
  18    -0.0049408496946201
  19    -0.031702629593713
  20    -0.010394257494894
  21    -0.0052752750487834
  22    -0.049898018644417
  23    -0.014015132360766
  24    -0.0008545925785052
  25    -0.0073057260678816
  26    -0.0012436249347547
  27    -0.00078820650358567
  28    -0.012752608453269
  29    -0.013686375663811
  30    -0.015226430186811
  31    -0.00060706270891431
  32    -0.0013980741792395
  33    0.00062724733857139
  34      0.01024931834701
  35     0.013624038962348
  36    0.00040462925637552
  37     0.018164083872752
  38    0.0099595796224825
 Sym= A
 Ene=               4
 Spin= Alpha
 Occup=    2.00000
   1      0.11487037400585
   2     -0.25704797288569
   3     -0.18533046704199
   4       0.0698874620266
   5     -0.21555068758652
   6      0.36939750791851
   7     0.024165423405518
   8     -0.12701983890231
   9      0.21826388502427
  10    -0.015599826112647
  11    0.0018984222002332
  12     0.017956548720949
  13    0.0076375107060138
  14    -0.00061124799094795
  15     -0.00420002846686
  16    0.0097434062443268
  17     0.043775378910772
  18    -0.026730764124812
  19    0.0074746767126973
  20    -0.0060692248212317
  21    -0.035941940879491
  22     0.015340045509759
  23     -0.01474326744816
  24    0.00059788481902189
  25    -0.009666663030636
  26    0.0012728363993486
  27    -0.0028810549726869
  28    0.0045024654682308
  29    -0.015009540211183
  30    -0.014612844058623
  31    -0.0012218967016723
  32    0.00037389563468849
  33    0.00046206747204706
  34     -0.30447913212621
  35     -0.10154020507019
  36    -0.0046628273842043
  37     0.017136810993183
  38    -0.029825145733971
 Sym= A
 Ene=               5
 Spin= Alpha
 Occup=    2.00000
   1    0.0042000148595529
   2    -0.0097434107462366
   3    -0.043775383429847
   4    -0.026730754091551
   5    -0.0034386471375645
   6    -0.0089934430066809
   7    -0.035941932501644
   8    -0.0059132378481211
   9    -0.020438071067723
  10    -4.2817051878281e-05
  11     0.010622809326441
  12    -0.00016270154755926
  13    0.0032015229699263
  14    -0.00093408036809633
  15     -0.11487097341361
  16      0.25704789915039
  17      0.18533040155681
  18     0.069887437902318
  19    0.0019736851500025
  20      0.42768301829197
  21     0.024165403622542
  22    0.00087051377876314
  23      0.25253202230407
  24     0.024870873609988
  25    -0.0019497074280185
  26    0.0005855461650809
  27    -0.0022848684828554
  28    0.00041985387599185
  29      0.30447914261318
  30      0.10154021482531
  31    -0.0046628281350798
  32    7.166132884279e-05
  33    -0.034397739466489
  34     0.015009539210478
  35     0.014612842166804
  36    -0.0012218964307523
  37    -0.00055483675078301
  38    0.00021321402507214
 Sym= A
 Ene=               6
 Spin= Alpha
 Occup=    2.00000
   1      -0.1847580883912
   2      0.42763282041684
   3      0.50895564582209
   4     -0.16659482956504
   5    -0.098694644906096
   6      0.34960099284889
   7     -0.11813189589166
   8    -0.061106718601068
   9      0.23918665149412
  10    -0.007533804197753
  11     0.010104867665815
  12      0.01102229570781
  13    -0.0032840771821892
  14    -0.0039125625125787
  15    0.0091924700119793
  16    -0.025407565595467
  17    -0.028536989165117
  18     0.050279413780777
  19    0.0065337580279358
  20    -0.020985645335426
  21     0.054327701187767
  22    0.0093710160925103
  23    -0.027260342678998
  24    -0.0041271413357558
  25    -0.007659808487693
  26    0.00094832178377948
  27    0.0028824227922592
  28    0.0024836439044384
  29    -0.019774825922777
  30    -0.0024016858418616
  31     0.001526807733613
  32    0.00028374249608326
  33    0.00087313107392937
  34    -0.073141517892813
  35    -0.074721456925219
  36    -0.0051326460792902
  37    1.4325550999435e-05
  38    0.0055077624198131
 Sym= A
 Ene=               7
 Spin= Alpha
 Occup=    2.00000
   1     0.009191799417319
   2    -0.025406390548887
   3    -0.028530152932183
   4     -0.05027753569617
   5    -0.0048455711488272
   6     0.021438661419437
   7    -0.054324696703681
   8    -0.0055318324980471
   9     0.028289327497229
  10    -0.003914592776704
  11    -0.0078753323813155
  12    0.0013735718825351
  13    0.0030050978168933
  14    0.0016840371337877
  15      -0.1841138889962
  16      0.42762571670957
  17      0.50892725589964
  18      0.16658646827191
  19     0.089555547251182
  20     -0.35209300903462
  21      0.11812712466309
  22     0.066838477623859
  23     -0.23768548675528
  24    -0.012263665906602
  25     0.010707220107456
  26    0.0015682809732913
  27    -0.006015827558164
  28    -0.0016670724337356
  29    -0.073138178721996
  30    -0.074715900522416
  31    0.0051325256195385
  32    0.0027733909999721
  33    -0.0047617985129722
  34    -0.019779778124632
  35    -0.0024066154451114
  36    -0.0015265773789952
  37    0.00068199246877766
  38    -0.00061472062023566
 Sym= A
 Ene=               8
 Spin= Alpha
 Occup=    2.00000
   1     0.057277134892944
   2     -0.11823153335773
   3    -0.066387872900341
   4     -0.40548528136099
   5    0.0050041814810425
   6    -0.0046621740170712
   7     -0.25602903997032
   8    -0.0048779603341011
   9    0.0051000845879855
  10     0.020038605201098
  11     0.010152774089826
  12    -0.0022823826816132
  13    -0.033771136622542
  14    -0.0074200832484889
  15     0.057277240194273
  16     -0.11823152263729
  17    -0.066387864460858
  18      0.40548528335449
  19     0.002002679997402
  20    0.0065396470388654
  21      0.25602904145178
  22    -0.0016743810649571
  23    -0.0068557861455367
  24     0.021547580790146
  25      0.01250260244666
  26    0.0007355690989937
  27    -0.032899929417521
  28    0.0013495935660097
  29     0.024642782889164
  30     0.050461278375375
  31     0.008696549996579
  32    0.00018867651721087
  33    0.0011520933240332
  34     0.024642783059907
  35     0.050461278987066
  36    -0.0086965499158682
  37    0.00073944482454823
  38    -0.00090340415865836
 Sym= A
 Ene=               9
 Spin= Alpha
 Occup=    0.00000
   1    -0.017712652266153
   2      -1.3646442732935
   3       3.2924927457709
   4    -0.041850094790681
   5    -0.032943984713169
   6      0.39563531114941
   7      0.57217479354557
   8      0.67446431736442
   9      -1.5954696725418
  10      0.19560581454098
  11      0.16344936043341
  12     -0.44457582156252
  13       0.2164577389439
  14     -0.23547141745549
  15     0.034418651883773
  16      0.12465990153301
  17     -0.95126544323152
  18      0.10168761081714
  19    -0.0058827929960362
  20     0.022230654468317
  21      0.74328854293179
  22    -0.022655311654436
  23      0.13683643598747
  24     0.090938993790659
  25    -0.075279657492039
  26    -0.0030337101135141
  27     -0.18852609508959
  28     0.014900025666279
  29     0.042331256795733
  30    0.0088125527275675
  31     -0.05543163296184
  32    -0.0036154945770767
  33    0.0021633912082207
  34      -1.0695799091864
  35      -1.2296210816395
  36    -0.078055239556518
  37      0.18048860228388
  38     -0.27603583416119
 Sym= A
 Ene=              10
 Spin= Alpha
 Occup=    0.00000
   1     0.024100172393467
   2      0.10486513070935
   3     -0.70477652694521
   4    -0.059686985767331
   5    -0.00034426484685596
   6    -0.025309914365252
   7     -0.55504419935337
   8    -0.00091727110760162
   9     -0.15321168843803
  10     0.071128871473292
  11    -0.095905492849113
  12     0.014588848918486
  13     -0.13034841560351
  14    0.0040270101554766
  15    -0.014845485376039
  16      -1.3227803614084
  17       3.1720189601721
  18    -0.062997499280207
  19     0.039290964232246
  20     -0.37816709489104
  21      -0.2362308627949
  22    -0.049513284989038
  23       1.8550300333488
  24      0.55796070110743
  25      0.16493010808276
  26    -0.014672619323773
  27      0.22102214009801
  28     0.046144340411106
  29      -1.1531790444304
  30      -1.3309139702869
  31     0.091137695699536
  32    0.0059957930868745
  33      0.36597404096043
  34     0.034970400182585
  35     0.036866690152614
  36     0.050188756550102
  37    -0.0014292939905466
  38    0.0041802117915474
 Sym= A
 Ene=              11
 Spin= Alpha
 Occup=    0.00000
   1    -0.035680259485777
   2     0.070217924454616
   3       0.3889596278912
   4     -0.77192465680965
   5     0.064585537570387
   6     0.070863500794139
   7       1.5706771242814
   8     -0.12217625115431
   9    0.0081483666265061
  10      0.15938497151824
  11      0.32130067934302
  12    -0.020646406402866
  13     -0.10430992643082
  14     0.011229107839643
  15     0.018520636551087
  16     0.080199540277557
  17     -0.83404323873122
  18     0.069026802716595
  19    0.0030565280350049
  20    -0.004319122577942
  21      0.59293041976503
  22    0.0099064285442843
  23    -0.013083375869373
  24     0.018013122744813
  25     0.038299228368593
  26    0.0025333862078715
  27    -0.073986157726445
  28    -0.0038538071296161
  29     0.056618787970566
  30     -0.13020589046429
  31    -0.015400827354172
  32    -0.00064917356287173
  33    0.0060896382885329
  34    -0.089881447229443
  35      0.27922585222796
  36    -0.087698102407498
  37     0.038966652902112
  38    -0.013001510254568
 Sym= A
 Ene=              12
 Spin= Alpha
 Occup=    0.00000
   1    -0.013782883562923
   2     -0.02326090744779
   3      0.28890580074749
   4     0.026282813835224
   5    -0.0042166845384283
   6     0.027804772077404
   7      0.19151394772241
   8    -0.018614677279379
   9      0.15911407188247
  10    -0.0029263364989388
  11     0.033721844544855
  12    0.0056664056277398
  13     0.018864339742328
  14    0.0026081354750569
  15    0.00067976907558484
  16      0.04678180349532
  17      0.21655939808429
  18     0.036821655488267
  19    -0.0051787498712833
  20    -0.081350419871789
  21      0.30172749326376
  22    -0.018112288040983
  23    -0.030149409347939
  24     -0.19322247991494
  25     0.051887638806711
  26    -0.015497273266368
  27    -0.034409011333035
  28    -0.0026369237446818
  29        1.130415313225
  30      -1.5203350674251
  31       -0.419592103095
  32     0.079807276390577
  33      0.12476731685258
  34     0.020285278525635
  35     0.090539351294496
  36    -0.00037638637501609
  37    -0.0078576261996434
  38    0.0061195730488756
 Sym= A
 Ene=              13
 Spin= Alpha
 Occup=    0.00000
   1    -0.00062259019842603
   2     0.051782309227372
   3      0.23393988321614
   4    -0.038984932951147
   5    -0.038819423324168
   6     0.058900077865208
   7     -0.30537264683503
   8    -0.022033268845432
   9    0.0071330147788155
  10    -0.097700199945498
  11     0.049032314101838
  12      0.15929392378414
  13     0.015451069955193
  14    -0.025606832058641
  15    -0.013782265369435
  16    -0.023507668472781
  17      0.28911480049572
  18    -0.026342330526732
  19    0.0099927429839953
  20    -0.025997183417674
  21     -0.19209694055501
  22     0.062734247145239
  23     -0.14739061848541
  24    -0.010568368098306
  25      0.02766265444484
  26    -0.008761736437972
  27     0.015029958530895
  28    -0.018746231475045
  29     0.020707051777081
  30     0.091446147591601
  31    0.0001496548729805
  32    -0.0037824618508817
  33    -0.0094759553825544
  34       1.1142240585478
  35      -1.5305220447582
  36      0.41774615618544
  37      0.13651311334581
  38     -0.10061909738884
 Sym= A
 Ene=              14
 Spin= Alpha
 Occup=    0.00000
   1     0.089096743338932
   2     -0.42303612503702
   3     -0.34264532680415
   4      0.13373330638682
   5     -0.30409642242008
   6      0.52414093624802
   7     0.056781334047542
   8     -0.19904930558223
   9      0.34351468840597
  10    -0.056354926380711
  11    -0.013855460394381
  12     0.069851483075875
  13     0.017938702879512
  14    0.0086522593846146
  15     0.004373809517392
  16    -0.031821928442878
  17    0.00047767010810276
  18     0.002809014091127
  19    0.0082470090188254
  20    0.0015352384313265
  21    -0.014681462985325
  22     0.015883850698565
  23     -0.01892121639003
  24    0.0022767465411715
  25    0.0018884832063865
  26    -0.0019943728036824
  27    -0.0035856247495573
  28    -0.0017403016491497
  29    -0.026206482555876
  30    -0.015235685151275
  31    0.00044779835675215
  32    -0.00017336548517662
  33    8.3699952394281e-05
  34      0.89188271761913
  35      0.55027860427632
  36     0.017834584858768
  37    -0.038775749864479
  38     0.068138406239578
 Sym= A
 Ene=              15
 Spin= Alpha
 Occup=    0.00000
   1    -0.041317418494944
   2     -0.15460785974488
   3       1.1528191357742
   4      0.14845444733175
   5    -0.011253903031074
   6     0.026770935998939
   7      0.97757336087902
   8     0.039135953900392
   9    -0.034450493167609
  10     -0.12517490155411
  11    -0.010083826696773
  12    -0.011781232268977
  13      0.22474369055742
  14     0.019306003058176
  15      -0.0334539896747
  16       1.1368064271077
  17      -1.9029267401499
  18     -0.21691643726163
  19      0.33612905625314
  20     -0.47215011283983
  21       1.3173015790421
  22     -0.41767837468683
  23      0.72275478082965
  24      0.31980573989191
  25      0.33812682266265
  26    -0.076652043500341
  27     -0.25832345015121
  28    -0.098082377747965
  29     -0.18616263179177
  30    -0.099862891112267
  31     -0.11790461325539
  32     0.055755412603766
  33     0.080372859454539
  34    -0.085482557730183
  35       0.2918631940396
  36    -0.0046219638719629
  37     -0.01837290381596
  38     0.027240704212857
 Sym= A
 Ene=              16
 Spin= Alpha
 Occup=    0.00000
   1    -0.018190235364012
   2    -0.085870899603697
   3      0.85035200353745
   4     0.064024975313001
   5    0.0016009113083758
   6    -0.0024272745604499
   7      0.60368719170105
   8     0.017561035124166
   9    0.0063116333591048
  10    -0.023608646814513
  11    -0.019593026358482
  12    -0.019123491369114
  13     0.067794243768504
  14     0.023057937301382
  15     0.038693912004261
  16     0.030008831093335
  17     -0.66548552420868
  18     -0.76178503371307
  19    -0.039303798242252
  20     0.083290276680154
  21       1.5379680667426
  22      0.03625511302705
  23     -0.17485280893348
  24     -0.25313085909704
  25      -0.2806926598553
  26     0.058615304924805
  27      0.12851123201366
  28      0.18761150899697
  29      0.24277807002539
  30     -0.12153759647811
  31      -0.1022433517691
  32    -0.021088011384661
  33     -0.08307014391398
  34    -0.059785798885816
  35      0.11926659070008
  36    -0.019347574161273
  37    -0.0025737949106696
  38    0.0024757570071467
 Sym= A
 Ene=              17
 Spin= Alpha
 Occup=    0.00000
   1    0.00059560417253561
   2    -0.013410428036221
   3    -0.0028749364261321
   4    0.0010719147893051
   5    -0.0025225578221967
   6    -0.013861310760818
   7     0.025588751153675
   8    -0.016494862555116
   9    -0.00076404460656426
  10    -0.017187364893929
  11    -0.021056247976188
  12    0.0096580482386779
  13      0.01699748136019
  14    0.00028178613044687
  15    -0.063119004399725
  16      0.23950547209907
  17      0.84651444746706
  18     0.099557976541772
  19    0.00025120580440061
  20       0.5290731360885
  21      0.15600659870645
  22    -0.0006303113756693
  23      0.62897426458172
  24      0.45470687021582
  25      0.14854868501005
  26    -9.1080550674433e-07
  27    0.0044593666103265
  28    -0.0010030319582698
  29     -0.78222734086693
  30      -0.4935565640446
  31      0.16104999480154
  32    0.0020853547898957
  33       1.4669362568975
  34     0.022139424999179
  35      0.04993704706912
  36      0.01094395609063
  37    -0.0089647658304295
  38     0.010832573038141
 Sym= A
 Ene=              18
 Spin= Alpha
 Occup=    0.00000
   1    -0.010168372763468
   2    -0.026777456366904
   3      0.26794357941131
   4     0.037864024911986
   5    -0.038047191379689
   6    -0.0040421137787732
   7      0.23518257624263
   8      -0.3127228552416
   9    -0.037934922196231
  10    -0.030938619205778
  11     -0.03675937213243
  12     0.013678752648848
  13     0.058780602864437
  14     -0.15284774286496
  15    -0.0065307035267793
  16      0.20145029679223
  17     -0.32433159549299
  18    -0.082010481611567
  19     -0.69505374088113
  20      -0.1786698067417
  21      0.36088798888645
  22      0.89600346768999
  23      0.31739258176059
  24     0.064367660245524
  25    -0.087397108838185
  26    0.00029401782824356
  27    -0.079627332679831
  28     -0.69188001857139
  29    -0.072711642993351
  30     -0.10754131652317
  31    0.00094187207154852
  32    -0.054594781674294
  33    0.0074388116345154
  34     0.030938691006109
  35     0.047761733522016
  36    -0.0012415247445153
  37      0.01589980216451
  38      0.02496957671471
 Sym= A
 Ene=              19
 Spin= Alpha
 Occup=    0.00000
   1     0.062844514026192
   2     -0.23836528150821
   3     -0.83386089665329
   4      0.10036144206884
   5     -0.26746911721513
   6      0.45673283297526
   7      0.15568058619332
   8     -0.31956186186901
   9      0.53885883999144
  10     -0.27907270856712
  11     -0.13256289519998
  12       0.3492111480655
  13     0.097186762157188
  14     0.076523077804512
  15    -0.0008334994964633
  16     0.012088669500014
  17    0.0069602399944949
  18    0.0012038304128822
  19    0.0094629220183478
  20    -0.011242437989107
  21     0.021246871667994
  22     0.017971617805458
  23    0.0026119961816098
  24     0.021287709430826
  25      0.01799970569614
  26    -0.0011789494595171
  27    -0.014476663738365
  28    -0.010938627322537
  29    -0.020734991303198
  30    -0.046465224439363
  31     0.011187717460532
  32    0.0021724813321612
  33     0.013197644582996
  34      0.81332812162944
  35      0.44615059520724
  36       0.1404957564691
  37     -0.70224759559686
  38       1.2847634423806
 Sym= A
 Ene=              20
 Spin= Alpha
 Occup=    0.00000
   1    -0.0019484248403491
   2    0.0050385132004021
   3     0.010057249939546
   4    -0.00068678245492182
   5     -0.07033316780267
   6    -0.064450074749607
   7     0.012261025668422
   8     -0.19919927362945
   9     -0.13982246322236
  10      0.18497443216813
  11     0.016172812031509
  12     0.092824801420065
  13     0.094267570083523
  14     0.024658457851414
  15    0.0012981093652392
  16    0.00044809219261718
  17    -0.024182153245678
  18    0.00098534897789366
  19    0.0061230296976975
  20     0.004092091050571
  21    0.0091426576170705
  22     0.031143787874859
  23      0.02535341769111
  24    -0.0047786353000256
  25    -0.011968989061577
  26    -0.0016603162842743
  27    -0.0024946343224656
  28    -0.015181453963088
  29    -0.00016515994178107
  30     0.006966690625929
  31    -0.0016888351532973
  32    -0.0007782047214599
  33    -0.0024836940428169
  34    -0.094519877127712
  35     0.079298735641655
  36    -0.028512962258832
  37      0.97719435095922
  38      0.52249834328704
 Sym= A
 Ene=              21
 Spin= Alpha
 Occup=    0.00000
   1    0.0072691371817304
   2     0.044711188338278
   3     -0.12114119562896
   4    -0.0091071978827534
   5    -0.008712235229607
   6     0.041193544949186
   7    -0.088661359596074
   8    -0.063316238829129
   9      0.27915029753636
  10    -0.0041313951869122
  11      0.16107749538426
  12     0.027666405253325
  13    -0.030429175935084
  14    -0.037400487696957
  15     0.022123857014286
  16     -0.35504799312369
  17      0.46445227586752
  18     -0.20032142127355
  19       0.0363975524172
  20      0.36634094085561
  21      0.19830682627133
  22    -0.025832421974662
  23     -0.47650424964002
  24     -0.12572177315872
  25      0.95333045092058
  26     0.011698158050935
  27     0.094694838880626
  28     -0.29476051274377
  29    0.0075271058554223
  30    -0.040838560773566
  31     -0.20132906323968
  32    0.0093122274249363
  33     0.099940715808697
  34      0.11098616970863
  35    -0.021665734435254
  36     0.030509379124913
  37    -0.0093657631895954
  38    0.0011852386951775
 Sym= A
 Ene=              22
 Spin= Alpha
 Occup=    0.00000
   1    0.0097655119239291
   2    -0.0056480668341278
   3     -0.30629751876381
   4    -0.055873971139576
   5    -0.021485892625401
   6     0.037273150169488
   7     -0.20020889116361
   8    -0.052796859346382
   9     0.091306285849362
  10    -0.024610803590405
  11      0.17553903245771
  12     0.013090035670647
  13     0.027333335794676
  14     -0.10212043405824
  15    -0.00033070922952192
  16     0.031423662829605
  17     0.043192271415267
  18    -0.023748576198048
  19    0.0022722556227796
  20     0.002786254066639
  21     0.024103805163788
  22    -0.036604602816609
  23     0.099144074363779
  24    0.0011627286682283
  25     0.021749958650079
  26    0.0088450078997655
  27     0.010386193970797
  28    -0.008202292254509
  29    -0.036704458088041
  30    -0.051346033094898
  31    -0.010307797755525
  32    0.0027109042723003
  33     0.014858445425791
  34     -0.36686153088015
  35      0.67824053143144
  36       1.0423123772675
  37    -0.0085700687330942
  38     0.011715072353255
 Sym= A
 Ene=              23
 Spin= Alpha
 Occup=    0.00000
   1    0.0014198283540125
   2    0.0010580386280652
   3    -0.027088868988014
   4    -0.0013211076858369
   5    0.0074691920385268
   6    -0.00032559027835831
   7    -0.011852929235132
   8     0.040349591815742
   9    -0.0078160351011198
  10    -0.00061851882217823
  11    -0.0024888074958343
  12    0.0051502378600004
  13    -0.0011631756606706
  14     0.019111950125505
  15    1.5853474483951e-05
  16    -0.0029632984162726
  17     -0.01831404369504
  18    -0.0029043701180163
  19    -0.093146220217633
  20    0.0048895972305277
  21    -0.020531054369787
  22     -0.24234659563561
  23    0.0021663740606898
  24     0.013276907049718
  25    -0.0038322037584755
  26     -0.22592914321887
  27    0.0024146964982827
  28    -0.029402027562799
  29    -0.080817410908098
  30      0.10921926927137
  31     0.029274649698374
  32       1.1072581943678
  33    -0.011311170944523
  34     -0.00101237716743
  35    0.0045599883091334
  36    0.0013333722494792
  37    -0.0015700705817385
  38    0.0013768273830691
 Sym= A
 Ene=              24
 Spin= Alpha
 Occup=    0.00000
   1    -0.020587745851603
   2     0.099753740797431
   3      0.09319140202837
   4    -0.070359075871076
   5     -0.76411957613191
   6     0.064807614290759
   7     0.018446546541453
   8       1.0838151823252
   9     -0.26782468509159
  10     0.011401721467181
  11    -0.029725420855482
  12     0.027442065573202
  13    -0.0074048342218657
  14      0.62462309273667
  15    -0.00051042729566589
  16    -0.013700224697525
  17     0.005043405976261
  18    0.0034403396959115
  19    -0.037993884139531
  20    0.0035873056481764
  21    -0.033600566603889
  22     -0.30670824009219
  23    0.0097240126758737
  24    -0.00036281195043518
  25    -0.022086040376762
  26    -0.012655547293989
  27    0.0017305236025345
  28      0.15853668096526
  29    -0.0023329919409883
  30     0.050278375882153
  31    -0.00084948235699094
  32     0.027489353622366
  33    -0.0072325767298491
  34     -0.17359945591626
  35     -0.25072407785178
  36    -0.071662319187387
  37    -0.054062426887922
  38    -0.002534443992478
 Sym= A
 Ene=              25
 Spin= Alpha
 Occup=    0.00000
   1     0.045060710891105
   2     0.047251544285792
   3     -0.86003547333235
   4     -0.19680289444509