[Molden Format]
made by pyscf v[2.0.1]
[Atoms] (AU)
O   1   8     0.00000000000000     0.00000000000000     0.00000000000000
O   2   8     2.75227162082039     0.00000000000000     0.00000000000000
H   3   1     3.06432366844540     0.00000000000000     1.80733789576484
H   4   1    -0.31205204762501     1.69834208391695     0.61814596614740
[GTO]
1 0
 s    6 1.00
             5484.6717   0.001831099805527
             825.23495   0.013950098518422
             188.04696    0.06844509273075
               52.9645    0.23271427528445
              16.89757    0.47019295006289
             5.7996353    0.35852086192309
 s    3 1.00
             15.539616   -0.11077750382508
             3.5999336   -0.14802630511126
             1.0137618     1.1307670390447
 s    1 1.00
             0.2700058                   1
 p    3 1.00
             15.539616   0.070874299543311
             3.5999336    0.33975279781076
             1.0137618    0.72715859531445
 p    1 1.00
             0.2700058                   1
 d    1 1.00
                   0.8                   1

2 0
 s    6 1.00
             5484.6717   0.001831099805527
             825.23495   0.013950098518422
             188.04696    0.06844509273075
               52.9645    0.23271427528445
              16.89757    0.47019295006289
             5.7996353    0.35852086192309
 s    3 1.00
             15.539616   -0.11077750382508
             3.5999336   -0.14802630511126
             1.0137618     1.1307670390447
 s    1 1.00
             0.2700058                   1
 p    3 1.00
             15.539616   0.070874299543311
             3.5999336    0.33975279781076
             1.0137618    0.72715859531445
 p    1 1.00
             0.2700058                   1
 d    1 1.00
                   0.8                   1

3 0
 s    3 1.00
             18.731137    0.03349459952309
             2.8253937    0.23472694665786
             0.6401217    0.81375731841339
 s    1 1.00
             0.1612778                   1
 p    1 1.00
                   1.1                   1

4 0
 s    3 1.00
             18.731137    0.03349459952309
             2.8253937    0.23472694665786
             0.6401217    0.81375731841339
 s    1 1.00
             0.1612778                   1
 p    1 1.00
                   1.1                   1

[5d]
[7f]
[9g]

[MO]
 Sym= A
 Ene=               0
 Spin= Alpha
 Occup=    2.00000
   1    -1.7589725369255e-05
   2    -0.00042221497295545
   3    0.0025078238174381
   4    0.00026615384702072
   5    6.2248313342879e-05
   6    4.8538059713612e-05
   7    0.0018382767673497
   8    5.2471903977938e-05
   9    7.2385118918346e-05
  10    -0.00012186684091606
  11    5.2426137533653e-05
  12    5.8849670906573e-05
  13    2.2513788573422e-05
  14    -5.1892162375955e-05
  15      0.99575355184185
  16     0.022163912821611
  17    -0.0076478150718956
  18    -0.00098823884991269
  19    -0.00072640282934827
  20    0.0016261176446275
  21    0.0025174401685117
  22    -0.00064284446806056
  23    -0.0010553257419248
  24    0.00070607476622897
  25    0.00016152471992298
  26    -3.4526106588027e-05
  27    -0.00072430879102903
  28    2.2781485901581e-05
  29    -0.00034223968982217
  30     0.001287102853266
  31    4.3138058136326e-05
  32    -2.1439233766892e-05
  33    0.0011864664311329
  34    -0.00035546697106736
  35    0.00044692890046136
  36    5.1142260146804e-05
  37    2.1067228744445e-05
  38    7.0034176169732e-07
 Sym= A
 Ene=               1
 Spin= Alpha
 Occup=    2.00000
   1      0.99583246258669
   2     0.021980550309441
   3    -0.0078700852984298
   4      0.00106039068844
   5    0.0020372193206394
   6    -0.00040549991454523
   7    -0.0024671796283852
   8    -0.00059310113935987
   9    -0.001172827076798
  10    0.00029387544088229
  11    -8.0389011596847e-05
  12    0.00012974556940394
  13    -0.00096246949406877
  14    -0.00013862428819258
  15    -2.1230973846323e-05
  16    -0.00041203994398562
  17    0.0025208994167921
  18    -0.0002883933004928
  19    9.507647030841e-06
  20    8.803422278931e-05
  21    -0.0018616547011059
  22    2.7739869345893e-05
  23    9.4912920800001e-05
  24    5.6997820544755e-05
  25    3.6901804529184e-05
  26    -1.5886282452008e-05
  27    0.00012314173965864
  28    -7.2896894448447e-05
  29    -0.00034233662182624
  30    0.00044750368009089
  31    -5.1081717095985e-05
  32    -7.2369094951291e-06
  33    1.9793573452228e-05
  34    -0.00030954130881255
  35    0.0013216401099777
  36    -4.0793529315952e-05
  37    0.0011280800234471
  38    0.00037635000589208
 Sym= A
 Ene=               2
 Spin= Alpha
 Occup=    2.00000
   1    0.0051347549574168
   2    -0.013291347264506
   3    -0.015876732774468
   4    -0.030759050612567
   5    -0.026418101111253
   6     0.013198275529372
   7     -0.03217789987355
   8    -0.041408811361446
   9     0.019293289788469
  10    -0.00035177064379441
  11    -0.004612763880985
  12    -0.0004485272470233
  13    0.0034795011855376
  14     0.012141461605257
  15     -0.10706453692146
  16      0.24786327724493
  17      0.30183353290915
  18     0.098070322134522
  19      0.54610746600011
  20     -0.20285163701588
  21     0.067863212848556
  22      0.39843876418902
  23      -0.1311688054968
  24    -0.009350798951459
  25    0.0050339092217908
  26     0.018448223569499
  27    -0.0052779777401679
  28    -0.008323354974056
  29    -0.044696628101215
  30    -0.046496291197115
  31    0.0032005487349698
  32     0.016714727989525
  33    -0.0031006435762532
  34    -0.020882411470342
  35    -0.0028817740912456
  36    0.00024135027415906
  37    3.9269676527054e-05
  38    0.0010724949737548
 Sym= A
 Ene=               3
 Spin= Alpha
 Occup=    2.00000
   1     -0.15474040944198
   2      0.36169213046749
   3      0.41828951127522
   4     -0.13727935655556
   5      -0.1389282914428
   6     -0.45789388934635
   7     -0.10263255849173
   8    -0.082518902791172
   9     -0.32686842628102
  10    -0.00093710273567831
  11    -0.0086253859785744
  12    -0.018260573516596
  13    0.0015022745600314
  14    -0.0058078693371858
  15    0.0089927855162044
  16    -0.022487064662817
  17    -0.047793500070349
  18     0.037387847062794
  19    0.0096854135249198
  20     0.014736315015828
  21      0.04009902580519
  22     0.013672959647475
  23     0.019625513502323
  24    -0.00037150097076987
  25     0.012852190963672
  26    -0.0005485588977217
  27    0.0030008898291036
  28    0.0035781754849553
  29     0.021742304100378
  30      0.03053163910429
  31    0.0023871677034272
  32    0.00047927820927797
  33    -0.00079823689574319
  34    -0.058014519928099
  35    -0.071221023201862
  36    -0.0042509539940482
  37    -0.00016722161152568
  38    -0.013055313027363
 Sym= A
 Ene=               4
 Spin= Alpha
 Occup=    2.00000
   1     -0.11277659345116
   2      0.25005137232699
   3      0.17944006402565
   4    -0.068903564534273
   5      0.40423248613354
   6      0.14633327343561
   7    -0.019371681507022
   8      0.23473536223969
   9     0.086954179274865
  10    -0.0059749849244518
  11    0.00075979519642768
  12     0.015189503442828
  13    -0.020886334415276
  14     0.001312404998419
  15    0.0038460012836663
  16    -0.011189897880965
  17    -0.027899812624359
  18     0.028587457023354
  19    -0.014673543803083
  20    -0.0084143033717087
  21      0.03811707032896
  22    -0.028948707342211
  23    -0.0079798116842782
  24    -0.0025634015968062
  25    -0.002800792388646
  26    0.0004802324213027
  27    0.0019818678669495
  28    -0.0085323568496698
  29    -0.0057583087617996
  30    -0.0080034957884634
  31    0.0019131688494334
  32    -0.00072696778684354
  33    0.00037957738609182
  34       0.3074225700253
  35      0.11152509158211
  36    0.0049481668047653
  37    -0.032245595779843
  38    -0.010824155725944
 Sym= A
 Ene=               5
 Spin= Alpha
 Occup=    2.00000
   1    0.0038460553002532
   2    -0.011190264568913
   3     -0.02790015258797
   4    -0.028588115506785
   5    -0.0028882822970266
   6    -0.016666420994287
   7    -0.038117534647002
   8    0.0024024095901849
   9    -0.029932084187205
  10    -0.00041631198835689
  11     0.008975689220443
  12    -0.00042212962386366
  13    0.0032214387186718
  14    -0.00028639143634463
  15      -0.1127770592655
  16      0.25005219213318
  17      0.17944113238698
  18     0.068904523147001
  19    -0.0007479176377127
  20      0.42990243547583
  21     0.019372316800899
  22    0.0014255651283833
  23      0.25031862947532
  24     0.026366821815939
  25    -0.0014930782318722
  26    0.0015969763739025
  27    -0.0022138466939308
  28    -0.00026509033843906
  29      0.30742245107436
  30      0.11152497141398
  31    -0.0049481423608342
  32    0.00085724643966102
  33    -0.034003038837555
  34    -0.0057583076676363
  35    -0.0080033726189319
  36    -0.0019131885823318
  37    0.00060533236438095
  38    -0.00055329610330578
 Sym= A
 Ene=               6
 Spin= Alpha
 Occup=    2.00000
   1     -0.10634462979506
   2      0.24776575771758
   3      0.30169825727119
   4    -0.098027123981065
   5     -0.37735321334469
   6      0.44393619596679
   7     -0.06783308070224
   8     -0.25950711502187
   9      0.32964863028594
  10     0.017340896372991
  11    0.0061023241919303
  12    0.0072363164958559
  13     0.010131054611683
  14    -0.0075753739180503
  15     0.005132291140424
  16    -0.013284599374749
  17     -0.01586012485879
  18     0.030747425643413
  19     0.021434911774003
  20    -0.020315397021491
  21     0.032164313818431
  22      0.03228822035339
  23    -0.032318952124768
  24    -0.0027962053842249
  25    -0.0098355542817468
  26    0.00057904070711938
  27    0.0020672527663925
  28    0.0084860393381683
  29    -0.020889409785619
  30    -0.0028909674403951
  31    -0.00024212217861853
  32    0.00099423295631727
  33    0.00040397748164154
  34    -0.044678611560148
  35    -0.046473170269629
  36    -0.0031992552649081
  37    -0.008629633669001
  38     0.014650537413411
 Sym= A
 Ene=               7
 Spin= Alpha
 Occup=    2.00000
   1     0.008991010858455
   2    -0.022483166527065
   3    -0.047788724623366
   4    -0.037379349834974
   5     0.010543171951557
   6     0.014137199056074
   7    -0.040089723470703
   8     0.013778326150088
   9     0.019554620319055
  10    -0.0024794793322793
  11    -0.007756705241556
  12    0.00033757773344874
  13    0.0017825703147708
  14    -0.010857113752174
  15     -0.15475113315899
  16      0.36161314123199
  17      0.41819536006054
  18      0.13724984465238
  19     -0.38293309329654
  20     -0.28709677795366
  21      0.10261199091046
  22     -0.27905666072948
  23     -0.18929776021293
  24    -0.011006942295457
  25    0.0084061447547299
  26    -0.014032989957946
  27    -0.0043116194311295
  28    0.0061214005620918
  29     -0.05800123097272
  30    -0.071206730224072
  31    0.0042499936687546
  32    -0.012215987728505
  33    -0.004621323502328
  34     0.021748855572068
  35     0.030532643046477
  36    -0.0023872674353907
  37    -0.00091402776493935
  38    0.00017702805365905
 Sym= A
 Ene=               8
 Spin= Alpha
 Occup=    2.00000
   1     0.057700789503963
   2      -0.1190185955022
   3    -0.069424468446078
   4     -0.40528350059456
   5    0.0072138449203375
   6    0.0065530192865106
   7     -0.25450866135784
   8    -0.012060176395188
   9    -0.0073443667964963
  10     0.017356195257616
  11    -0.0074830149526351
  12    0.0015738092057039
  13    -0.035333257534679
  14    -0.013597857358093
  15     0.057701590572197
  16      -0.1190199235232
  17    -0.069425927014351
  18      0.40528319408401
  19    0.0036917801498051
  20     0.009020173530364
  21      0.25450853274628
  22    -0.0027757404888094
  23    -0.013844626951595
  24     0.022263450629263
  25     0.015337163646718
  26    -0.00048856065680652
  27    -0.032500020050984
  28     0.002380967704184
  29     0.029725241057322
  30     0.051492675353288
  31    0.0092177257278293
  32    0.0006039454531152
  33    0.0011169469315832
  34     0.029725492219892
  35     0.051492589638126
  36    -0.0092177194622806
  37    0.0008429820140361
  38    0.00094948538511005
 Sym= A
 Ene=               9
 Spin= Alpha
 Occup=    0.00000
   1     0.011333707381374
   2      -1.6357705029036
   3       3.4218698464174
   4      0.10645609612419
   5    -0.046747669876545
   6      0.23231548393138
   7      0.51283937675166
   8       1.0604272292086
   9      0.08170857673386
  10     -0.41134117957367
  11    -0.095571316681765
  12      0.27892228032301
  13    -0.0073351362791929
  14     -0.26813393481088
  15     0.037696710383076
  16      0.14867760609545
  17     -0.99236190728485
  18      0.11344362048778
  19    -0.011713993564319
  20    0.0097546352803752
  21      0.82050985643993
  22     -0.05315197258405
  23     0.042474677776187
  24      0.11212772361334
  25    0.00090234076476586
  26    0.00045389341400769
  27     -0.21717662274277
  28     0.035798406320415
  29     0.035930271260721
  30    -0.055037694800624
  31    -0.030075957325954
  32     0.005599008266742
  33     0.022691181189798
  34     -0.84872605109645
  35       -1.047558661056
  36    -0.045027849301273
  37      0.27096787231634
  38      0.12915204304782
 Sym= A
 Ene=              10
 Spin= Alpha
 Occup=    0.00000
   1     0.026747592747183
   2      0.12751387937363
   3     -0.74076068227201
   4    -0.070412203088384
   5     0.009794740055703
   6    -0.015649853540084
   7     -0.61823846148987
   8     0.028978252638739
   9    -0.092197849961581
  10     0.098690065206579
  11    -0.059683481773333
  12    -0.009504849736089
  13     -0.15047030293387
  14     0.011737643451872
  15    0.0077444893440331
  16      -1.5574650345452
  17       3.3258245413328
  18     -0.18718541914615
  19      0.15878186437302
  20     -0.08292630964948
  21      -0.1754783736372
  22     -0.19469426468816
  23       1.3506787336348
  24      0.45132376956617
  25      0.24768898239121
  26    -0.0070576152611781
  27      0.27123516574631
  28     0.023985570100062
  29     -0.99695193478346
  30      -1.2199218749045
  31     0.051915506015635
  32     0.017582423104567
  33      0.34855038646032
  34     0.037428771353658
  35    -0.018378733955092
  36     0.021934066956559
  37     0.010146332602117
  38     0.014121975081952
 Sym= A
 Ene=              11
 Spin= Alpha
 Occup=    0.00000
   1    0.0070921487408318
   2    -0.081968952946389
   3     -0.30529550008748
   4     0.051206335961499
   5    0.00099036779969953
   6     0.010810418641424
   7      0.34228185261307
   8    -0.067601941427607
   9     0.022327213595465
  10    -0.044111700578987
  11     0.022199578199122
  12      0.10682109094133
  13    -0.065699760279407
  14     0.078702142826986
  15     0.010209745372389
  16     0.024841166905531
  17     -0.22897682656857
  18      0.02986666988534
  19    -0.016615243944951
  20     0.014187520749052
  21       0.2078742332536
  22     -0.10270523995787
  23     0.039611276739381
  24      0.02738921703136
  25     0.015083015146488
  26    -0.0074945499029147
  27      -0.0134147133083
  28     0.030350098902701
  29    -0.015426886302338
  30     -0.20415394725706
  31      0.01473217881259
  32    -0.0011700366492845
  33     0.021405404877474
  34     -0.98246321105531
  35       1.5403282430231
  36     -0.44526584293333
  37      -0.2539981019074
  38     -0.27405261716221
 Sym= A
 Ene=              12
 Spin= Alpha
 Occup=    0.00000
   1    -0.010187300672515
   2    -0.023616217748113
   3      0.22780420125639
   4     0.030139358043947
   5    -0.019406459311628
   6     0.012561406224027
   7      0.20685626218057
   8    -0.071900371184009
   9     0.087334634546484
  10    0.0037756771649825
  11     0.035840948009595
  12    -0.0051740392464877
  13     0.029663738596292
  14    0.0036818681390799
  15    -0.00092248330089043
  16     0.058864762748505
  17      0.22536151367247
  18       0.0415046310083
  19    -0.010349414220183
  20    -0.057106342509738
  21      0.32882144313049
  22    -0.045498396199527
  23    -0.0055983664547549
  24     -0.17012733126801
  25     0.067048234876632
  26    -0.037541827931335
  27    -0.032122141186045
  28    -0.0062674871948682
  29       1.0696289973949
  30      -1.5067443476445
  31     -0.46173362539201
  32      0.17747242231171
  33      0.18981426169192
  34     0.016244443381163
  35      0.20313200023931
  36     0.015582761418583
  37    -0.020448289304364
  38    -0.0064081008397145
 Sym= A
 Ene=              13
 Spin= Alpha
 Occup=    0.00000
   1     0.088398808270174
   2     -0.41892519845919
   3     -0.34625262910257
   4      0.13747805589229
   5     -0.57501058205428
   6     -0.20754808744956
   7     0.051752310310152
   8     -0.37192672243341
   9      -0.1383697670893
  10     0.030212758329473
  11    0.0058912602935065
  12    -0.052838634950857
  13     0.067455775232948
  14      0.01560617130363
  15    0.0048790569179376
  16    -0.029359093541358
  17    -0.010055513948407
  18    0.00066512939945704
  19     0.012618864192192
  20     0.018469489231045
  21    -0.019910111287474
  22     0.026766175252881
  23    0.0093724725743952
  24    -0.001173939046511
  25    -0.0018795755925523
  26    0.0023681519111865
  27    -0.004349917094542
  28    -0.0029783420181426
  29    -0.027220129030891
  30    -0.0023073535107384
  31    -0.0028427925183737
  32    -2.2530040960058e-05
  33    -0.0026183010003742
  34      0.88391218121676
  35      0.55449296033066
  36      0.01856838764555
  37    -0.074016212528147
  38    -0.024356764934859
 Sym= A
 Ene=              14
 Spin= Alpha
 Occup=    0.00000
   1    -0.024876235353195
   2     -0.29548865641495
   3       1.0095932705703
   4     -0.68263430952058
   5     -0.16424468729838
   6      0.13177436014224
   7       1.5201869248965
   8      0.30495528193029
   9    -0.092425186481072
  10      0.09786534152995
  11      0.46786082549194
  12    0.0098800505005807
  13     -0.21939134503345
  14     0.009512965500894
  15     0.020520102263621
  16      0.10229613706614
  17      -0.9105198352812
  18     0.068593155441236
  19    -0.0047593045283362
  20    -0.0042264767255805
  21      0.66918873701938
  22      -0.0566776471403
  23    -0.038157029255597
  24     0.025655464054522
  25     0.059870242659318
  26    3.0607280668707e-05
  27    -0.088436631460588
  28      0.02771286831929
  29     0.071302991990952
  30      -0.1414134429725
  31    -0.021819181606532
  32    0.0026928808007133
  33    0.0099884640937647
  34     -0.19793200456042
  35     0.031778811921214
  36     -0.17146349162914
  37    0.0086933303707947
  38     0.038388316882201
 Sym= A
 Ene=              15
 Spin= Alpha
 Occup=    0.00000
   1    -0.017528471414433
   2    -0.054538611642838
   3      0.43387432044826
   4     0.054806302596505
   5    -0.0095383645851252
   6    -0.041448976932081
   7      0.39495473749886
   8    -0.093139284929538
   9     -0.31174891188364
  10     -0.04126976438689
  11     -0.14629728553954
  12    -0.013932380754688
  13     0.090691517507061
  14    -0.00014718897764981
  15    -0.036261115807565
  16      0.38151064660624
  17     -0.24687960081018
  18    -0.048678333872292
  19     -0.17593372525592
  20     -0.76113654634664
  21      0.55418674313137
  22      0.21424406966812
  23       1.4544171449445
  24      0.18858714814873
  25       -0.382293986932
  26    0.0098342842765725
  27     -0.11574348992916
  28     0.038255776743405
  29     -0.41241795854928
  30     -0.52855238820261
  31     0.068708542770046
  32    -0.022338095786188
  33     0.036739463327032
  34     0.028563196692897
  35      0.11113332318984
  36    -0.019493084214832
  37    -0.029745363690164
  38     0.014160686329696
 Sym= A
 Ene=              16
 Spin= Alpha
 Occup=    0.00000
   1    -0.022512989157562
   2     -0.10988798192804
   3      0.96156188723026
   4     0.074888881245387
   5    0.0019542289979929
   6    0.0065255068996498
   7      0.71091284589674
   8     0.017542902771794
   9      0.07165052727785
  10     -0.06688081231683
  11       0.0490704953172
  12     0.014771692582565
  13     0.079826268912119
  14     0.047375039507076
  15     0.024797209219943
  16      0.37983497903545
  17      -1.1935945768165
  18     -0.67667637481178
  19     -0.18185912395681
  20      0.12303806411385
  21       1.5434505575532
  22      0.19307661411462
  23     -0.33393486845722
  24     -0.14668508700439
  25      0.14771018844132
  26     0.010916431198958
  27      0.17467786852427
  28      0.43988273330578
  29      0.24599448748217
  30     0.033045928696943
  31     -0.17171741342929
  32    -0.033905298765206
  33    -0.035666627268454
  34    -0.074665394538567
  35      0.14398959694882
  36    -0.023118791741092
  37    -0.0091678187790773
  38    -0.0066462762291255
 Sym= A
 Ene=              17
 Spin= Alpha
 Occup=    0.00000
   1    -0.00064270529763046
   2    -0.019524169142128
   3     0.017696986399572
   4    -0.0049366793826375
   5    0.0021189283902953
   6    -0.018416416613945
   7     0.024978637724654
   8    -0.010149417437858
   9    -0.028704241712793
  10    -0.0070165384844281
  11    -0.022546007378768
  12    0.0004613072147564
  13     0.012009116429611
  14    0.0023415009150654
  15    -0.063539628385145
  16      0.23605200914504
  17      0.86287690177536
  18     0.090133571459701
  19    0.0010058709555351
  20      0.53123713897715
  21      0.12010921986313
  22    0.00036958601477217
  23      0.63453760021656
  24      0.45981809118359
  25      0.11594370944598
  26    0.0019497806506046
  27    0.0021744130650129
  28    0.00056868570716641
  29     -0.76188906379366
  30     -0.52359368705537
  31      0.31161507093677
  32    -0.010761650766862
  33       1.4447038263174
  34    -0.010233152774614
  35     0.034964921723821
  36    -0.0085357215803392
  37    -0.0016698994848937
  38    0.00046963095235216
 Sym= A
 Ene=              18
 Spin= Alpha
 Occup=    0.00000
   1     0.031588074750796
   2       0.1113444526396
   3     -0.90419344515573
   4     -0.12164780259947
   5      0.01785287610109
   6    -0.0044177110243088
   7        -0.74389450467
   8     -0.10110984313595
   9    -0.00042276009650313
  10      0.11101444371419
  11    -0.030037072694309
  12    -0.011173221504061
  13     -0.16289177678194
  14    -0.027060229419435
  15    0.0051105659830907
  16      -0.6746750319244
  17        1.348591285177
  18      0.28449921737054
  19     -0.72443891788086
  20      0.10974011607442
  21      -1.1274264512545
  22      0.88913747612736
  23     -0.13665632443478
  24     -0.18840204512167
  25     -0.29649945613492
  26     0.029746063339863
  27      0.25233342185611
  28       0.2879127228611
  29     0.017664023294762
  30     0.028888228934137
  31      0.11220297478149
  32     -0.09066830642333
  33    -0.054147480844815
  34     0.081435222781762
  35     -0.22255832726395
  36    -0.00034647787871621
  37      0.02116287390511
  38      0.00526996704263
 Sym= A
 Ene=              19
 Spin= Alpha
 Occup=    0.00000
   1    -0.062667519754562
   2      0.23080455000091
   3      0.80811638203549
   4    -0.093930682713251
   5      0.50126153592708
   6      0.18717382967565
   7     -0.11255217938772
   8      0.58389076563629
   9      0.22556947372605
  10     -0.15410251824874
  11    -0.048352272340763
  12      0.27696534858096
  13     -0.35538776450542
  14     -0.12709423040391
  15    0.00030338274831488
  16    -0.012559227694806
  17    -0.00074220971656824
  18    0.0050726500557965
  19    -0.019546408158756
  20    -0.0019828787122643
  21    -0.00078461661344254
  22    -0.042965533318044
  23    -0.016750020469369
  24    -0.0044835289972231
  25    0.0071013352273654
  26    -0.0017708733796206
  27     0.012990865957628
  28     0.023231253629754
  29    -0.0098241418168106
  30    0.0033042052348861
  31    0.0095133866043794
  32    0.0017211330366266
  33    0.0010602401069529
  34     -0.92141073467539
  35     -0.28880869025538
  36     -0.22733600779965
  37       1.3676101776234
  38      0.43414403854795
 Sym= A
 Ene=              20
 Spin= Alpha
 Occup=    0.00000
   1    0.0040887793177079
   2     -0.67180591565745
   3       1.3585463621636
   4     -0.29038803323307
   5      0.33958314063847
   6     -0.65001477159939
   7       1.1347588366949
   8       -0.408981336219
   9      0.80050793555401
  10     -0.11747815309062
  11     -0.17471021505971
  12    -1.536628053974e-05
  13      0.29303232086158
  14      0.36962787627512
  15     0.031675577587868
  16      0.11142419654682
  17     -0.90813663766278
  18      0.12223683039566
  19    -0.010325714636956
  20     0.015309569563188
  21      0.74633308694153
  22     0.031526287856083
  23    -0.096584128228753
  24     0.082525938738268
  25     0.035686420071467
  26    0.00088163891208374
  27      -0.1801181694667
  28     0.019675813061382
  29     0.081830606188071
  30     -0.22259267064427
  31    0.00067425355315483
  32    -0.0020858446451519
  33     0.021620419450985
  34    0.0072473823461426
  35     0.019801784891759
  36     -0.11180096572749
  37    -0.017599132785207
  38     -0.10304130463619
 Sym= A
 Ene=              21
 Spin= Alpha
 Occup=    0.00000
   1    0.0050933271490336
   2    -0.0010250521184878
   3     -0.13522070105431
   4    -0.029430650501841
   5    -0.0024357849087645
   6     0.034516957874231
   7     -0.10045298040626
   8    -0.064032893168404
   9     0.076616179639823
  10     0.017894931613598
  11     0.097616888139251
  12    0.0031913063844444
  13     -0.03030122142977
  14    -0.020553905498246
  15    -0.033431569805496
  16      0.20976383750464
  17     0.086458073737923
  18        0.207960433372
  19     -0.26844515729061
  20     -0.19153872063564
  21     -0.28266118053995
  22      0.33265604351735
  23      0.39230109563999
  24      0.06549451855129
  25      0.97091161153441
  26    -0.055015721192542
  27       0.1586169575831
  28    -0.0041519865717401
  29     -0.26857971933424
  30    -0.092006193489893
  31     -0.14357847903929
  32    -0.016847349214391
  33      0.12948939142634
  34     0.011041749788291
  35    -0.034101202714707
  36    -0.014272680111894
  37    0.0048113239520032
  38    -0.0092332464277848
 Sym= A
 Ene=              22
 Spin= Alpha
 Occup=    0.00000
   1     0.033387925167453
   2      -0.2129594449259
   3    -0.079585767252039
   4      0.20420894255399
   5     0.090279987958592
   6      0.31935962440092
   7      -0.2702372721147
   8     -0.25923445013444
   9     -0.45177548009275
  10      0.17137683466642
  11      0.29070395621167
  12    -0.044490488950557
  13    -0.017322775962159
  14      0.92714864039283
  15    -0.004845383067112
  16    0.0011231273527809
  17      0.12934763551347
  18    -0.028064041663708
  19    -0.033663977803579
  20    -0.0078637434316356
  21    -0.093522155146233
  22     -0.09547250252127
  23     0.043419687000385
  24    -0.016838432963083
  25    0.0089269295653387
  26    -0.0027708639980597
  27     0.027983079873247
  28      0.10023153429267
  29    -0.014351210370096
  30     0.031376436953225
  31    -0.013389951724584
  32     0.010499070869458
  33    -0.00058610856829684
  34      0.27015597030352
  35     0.095484803876851
  36     -0.14416968168146
  37     -0.12757666572771
  38     -0.02973070552698
 Sym= A
 Ene=              23
 Spin= Alpha
 Occup=    0.00000
   1    -0.0017922911997102
   2    0.00087985561894316
   3    -0.029227194143203
   4    -0.0020840911001888
   5     0.058145261054534
   6    -0.077349409240195
   7     0.030244414832958
   8      0.09748252002315
   9     -0.21773904252788
  10     -0.14422604491096
  11     0.022102813809464
  12      -0.1431563591132
  13      -0.1011811025107
  14    -0.022667328573093
  15    0.0014017178513594
  16    0.0053463649242451
  17    -0.027294815125398
  18    0.0028262992911291
  19    -0.0063261551876578
  20     0.010217945195125
  21     0.038047310261506
  22     -0.03931855117035
  23     0.049018127314943
  24    0.0096683406826726
  25     -0.01324744435997
  26    0.0021496341556204
  27    0.0021350072895687
  28     0.011443614980775
  29    -0.0086370888568992
  30    -0.044221869956863
  31    -0.0035614987126423
  32    -0.0001733205992609
  33    0.0059760810194321
  34     -0.24608593097637
  35      0.29174227627981
  36     0.011658929459531
  37     -0.34624273302261
  38       1.0347299616412
 Sym= A
 Ene=              24
 Spin= Alpha
 Occup=    0.00000
   1    0.0014274038113493
   2    0.0055602842643916
   3    -0.028020399289997
   4    -0.0028728872211979
   5     0.011720482704996
   6    -0.0021613062265852
   7    -0.038604413850816
   8     0.059685037492353
   9    -0.019481909715531
  10    -0.0033829669758013
  11    -0.0059299271865296
  12     0.007731814641307
  13    -0.0057918401446829
  14     0.016333430059522
  15    -0.00069885468527369
  16    -0.0033675733738998
  17    -0.043587514210825
  18    0.00017670450300437
  19    -0.092618637668296
  20     0.018957634645781
  21    -0.033605840075319
  22     -0.23804515596007
  23    0.0062778182931389
  24     0.036612984740263
  25     0.010705790314375
  26     -0.22258105286955
  27    0.0076706398531566
  28    -0.028538887772232
  29     -0.23210170274983
  30      0.29982271247522
  31    -0.012152983398099
  32       1.0913121384081
  33    0.0025845576339555
  34    -0.0085409725279522
  35    -0.044681690529914
  36    0.0036715190518628
  37    0.0057252823208679
  38     0.001850340969821
 Sym= A
 Ene=              25
 Spin= Alpha
 Occup=    0.00000
   1     0.046747241302333
   2     0.054111658046734
   3     -0.91766540713805
   4     -0.19850961145313
   5    0.0048161988503904