[Molden Format]
made by pyscf v[2.0.1]
[Atoms] (AU)
O   1   8     0.00000000000000     0.00000000000000     0.00000000000000
O   2   8     2.75227162082039     0.00000000000000     0.00000000000000
H   3   1     3.06432366844540     0.00000000000000     1.80733789576484
H   4   1    -0.31205204762501     1.69834208391695    -0.61814596614740
[GTO]
1 0
 s    6 1.00
             5484.6717   0.001831099805527
             825.23495   0.013950098518422
             188.04696    0.06844509273075
               52.9645    0.23271427528445
              16.89757    0.47019295006289
             5.7996353    0.35852086192309
 s    3 1.00
             15.539616   -0.11077750382508
             3.5999336   -0.14802630511126
             1.0137618     1.1307670390447
 s    1 1.00
             0.2700058                   1
 p    3 1.00
             15.539616   0.070874299543311
             3.5999336    0.33975279781076
             1.0137618    0.72715859531445
 p    1 1.00
             0.2700058                   1
 d    1 1.00
                   0.8                   1

2 0
 s    6 1.00
             5484.6717   0.001831099805527
             825.23495   0.013950098518422
             188.04696    0.06844509273075
               52.9645    0.23271427528445
              16.89757    0.47019295006289
             5.7996353    0.35852086192309
 s    3 1.00
             15.539616   -0.11077750382508
             3.5999336   -0.14802630511126
             1.0137618     1.1307670390447
 s    1 1.00
             0.2700058                   1
 p    3 1.00
             15.539616   0.070874299543311
             3.5999336    0.33975279781076
             1.0137618    0.72715859531445
 p    1 1.00
             0.2700058                   1
 d    1 1.00
                   0.8                   1

3 0
 s    3 1.00
             18.731137    0.03349459952309
             2.8253937    0.23472694665786
             0.6401217    0.81375731841339
 s    1 1.00
             0.1612778                   1
 p    1 1.00
                   1.1                   1

4 0
 s    3 1.00
             18.731137    0.03349459952309
             2.8253937    0.23472694665786
             0.6401217    0.81375731841339
 s    1 1.00
             0.1612778                   1
 p    1 1.00
                   1.1                   1

[5d]
[7f]
[9g]

[MO]
 Sym= A
 Ene=               0
 Spin= Alpha
 Occup=    2.00000
   1      0.99585309151531
   2     0.021946925024808
   3    -0.0079554887947912
   4    0.0010809670416258
   5    0.0015147877182745
   6    -0.0010138583966911
   7    -0.0024570029064733
   8    -0.00098608284915185
   9    -0.00011709822610295
  10    0.00032526327863941
  11    3.8158268190584e-05
  12    -0.00017652467681729
  13    -0.00094415588496103
  14    -0.00014818679611478
  15    -2.2895754452254e-05
  16    -0.00037404968624455
  17    0.0024463511794581
  18    -0.00028859457345617
  19    3.8072905131736e-05
  20    5.4542079860657e-05
  21    -0.001882298943822
  22    6.8596588658874e-05
  23    -3.798754462859e-05
  24    4.1135632988831e-05
  25    6.609603243641e-05
  26    1.985164230186e-05
  27    0.0001241806252261
  28    -6.2517427093638e-05
  29    -0.00036209738830474
  30    0.00053211602805751
  31    -5.3659558021938e-05
  32    -2.4966437366325e-06
  33    8.7393253216411e-06
  34    -0.00031544499902639
  35     0.001356264261899
  36    -3.1712413363028e-05
  37    0.0011053584214555
  38    -0.00041293523641606
 Sym= A
 Ene=               1
 Spin= Alpha
 Occup=    2.00000
   1    -2.229441016752e-05
   2    -0.0003756680310405
   3    0.0024442912964079
   4    0.00028535349223192
   5    6.3418467240659e-05
   6    1.8486636893268e-05
   7    0.0018788616365296
   8    -1.3455426428555e-05
   9    7.9433358238725e-05
  10    -0.000119499454104
  11    8.0839363230535e-05
  12    -4.7496688966606e-05
  13    3.1769825104831e-05
  14    -4.0433021365761e-05
  15      0.99584140541525
  16     0.021974075511828
  17    -0.0079231253539217
  18    -0.0010703161986366
  19    -0.00041931432419122
  20    0.0017478017524729
  21    0.0024645471786714
  22    -0.00043598400618332
  23    -0.00090147669251755
  24    0.0007138263691809
  25    0.00015293885793595
  26    -1.2452110492287e-05
  27    -0.00071975283563105
  28    1.4566429966977e-05
  29    -0.00032016194611664
  30    0.0013513921097808
  31    3.203558594094e-05
  32    -9.5187076587042e-06
  33    0.0011796073271995
  34    -0.00036325526778279
  35    0.0005322768060212
  36    5.359053804865e-05
  37     7.41857177841e-06
  38    -5.3068361667943e-06
 Sym= A
 Ene=               2
 Spin= Alpha
 Occup=    2.00000
   1    -0.0068723971844184
   2     0.016845538628732
   3     0.038736364228101
   4      0.02720559029099
   5     -0.01965181001794
   6    -0.016037980741447
   7     0.029186977753927
   8     -0.02802637532942
   9    -0.025322870714281
  10    0.0023068751314649
  11    0.0041718607903853
  12    0.00054294848271392
  13    -0.0010415112120904
  14     0.013600657392574
  15      0.11453458259788
  16     -0.26876477940814
  17     -0.30914450620097
  18     -0.10156633737338
  19      0.52990194061801
  20      0.21441997663732
  21    -0.076765265902994
  22      0.38631223540246
  23      0.14035080834414
  24    0.0069033470852201
  25    -0.0055732237884387
  26     0.018374011530433
  27    0.0022714777701155
  28    -0.0078682524683712
  29     0.043779930472517
  30     0.052544444815846
  31    -0.002761878031653
  32     0.016447196522338
  33    0.0030375803446053
  34    -0.019576210608377
  35    -0.027422404169672
  36      0.00169040946311
  37    0.00043207267607531
  38    -0.0012305704141935
 Sym= A
 Ene=               3
 Spin= Alpha
 Occup=    2.00000
   1     -0.14752043524919
   2      0.34191491214032
   3      0.41057388846012
   4     -0.13433894651016
   5      -0.1272068669746
   6      0.47616636608396
   7    -0.093663007926655
   8    -0.075957414311222
   9      0.34351913494039
  10    0.0020550632577123
  11    0.0089194006572014
  12     0.017678509446757
  13    0.0017380784140125
  14    -0.0054901578604205
  15    0.0071468871047537
  16    -0.019654661981539
  17    -0.019932028003013
  18     0.041520813256318
  19    0.0087118919185974
  20    -0.023878235241324
  21     0.044282290229374
  22     0.012188110799412
  23    -0.033955570904893
  24    -0.0033955662738607
  25    -0.010618699397589
  26    0.0010041185265807
  27    0.0025891229839446
  28    0.0032849077207569
  29    -0.024145848762174
  30    -0.0060894716370956
  31    0.00054082128145053
  32    0.0004226202158884
  33    0.00097518961619918
  34     -0.05940127185579
  35    -0.059681914965379
  36    -0.0041658853388246
  37    0.00026787452192306
  38     0.012967950778879
 Sym= A
 Ene=               4
 Spin= Alpha
 Occup=    2.00000
   1     -0.11404800579306
   2      0.25410745195986
   3      0.18350927592969
   4    -0.069461489379445
   5      0.40445199740648
   6     -0.14468573785384
   7    -0.022121096246078
   8       0.2370241988534
   9    -0.084097758822991
  10    -0.0071887940499003
  11    -0.00081264924444386
  12    -0.012312152956476
  13     -0.02121593161125
  14    0.0012385895044121
  15    0.0039660383493255
  16    -0.010416006417812
  17    -0.035583594357098
  18     0.027488493738493
  19     -0.01422704413215
  20    0.00031929758483808
  21       0.0370880982306
  22    -0.028863096138729
  23    0.0060741165767836
  24    -0.0021180225729122
  25    0.0041685868571551
  26    -0.001125945378289
  27     0.002052460915494
  28    -0.0084368282845325
  29    0.0057935312928029
  30    0.0029487467648739
  31    0.0018734396671811
  32    -0.00082568373758527
  33    -0.0001002198056007
  34      0.30542403346075
  35      0.10528730009814
  36     0.004361656376408
  37     -0.03208248495415
  38     0.012127646120082
 Sym= A
 Ene=               5
 Spin= Alpha
 Occup=    2.00000
   1    0.0039660183398181
   2    -0.010416006546435
   3    -0.035583593268117
   4    -0.027488499578978
   5    -0.004565905061612
   6    -0.013478263665925
   7    -0.037088103349395
   8    -0.0041639648323858
   9    -0.029199914384975
  10    -0.00025540763094733
  11    0.0093537653296017
  12    -0.00034313211923083
  13    0.0031278424929305
  14    -0.0010316257217574
  15     -0.11404784934973
  16      0.25410748309788
  17       0.1835093067572
  18     0.069461501842676
  19    0.0023705968049306
  20       0.4295459721562
  21     0.022121105752087
  22    0.0020409980688238
  23      0.25149300337493
  24     0.025411054143545
  25    -0.0014418348511398
  26     0.001388800941901
  27    -0.0023944007307176
  28    0.00034001838142393
  29       0.3054240293059
  30      0.10528729593147
  31    -0.004361655999935
  32    0.00042340305893377
  33    -0.034295573780621
  34    0.0057935283377709
  35    0.0029487465538976
  36    -0.0018734398853576
  37    -0.00037657621897994
  38    -0.00074161212666299
 Sym= A
 Ene=               6
 Spin= Alpha
 Occup=    2.00000
   1      0.11450479145402
   2     -0.26874201950044
   3     -0.30911648090125
   4      0.10155715404248
   5      0.38271731612645
   6       0.4246413633581
   7     0.076758927171814
   8      0.26400803110395
   9      0.31503529346275
  10    -0.014205543219654
  11    0.0054881892942922
  12    0.0095035864154569
  13    -0.009915689000703
  14    0.0079278470002598
  15    -0.0068719200452354
  16     0.016844218614355
  17     0.038734976731011
  18    -0.027202720042185
  19    -0.021791482754164
  20    -0.012982971386767
  21    -0.029183905989386
  22    -0.033380462973835
  23    -0.017677554454162
  24    -0.00025466612759356
  25    -0.011354298155649
  26    -0.00053344288344218
  27    -0.0025201156769581
  28    -0.0085717407411248
  29    -0.019577836463233
  30    -0.027422823395221
  31    -0.001690370861298
  32    -0.0010085511563886
  33    0.00082696062029233
  34     0.043775887362932
  35     0.052540363541256
  36    0.0027615945544036
  37    0.0084796625275259
  38     0.014417283895774
 Sym= A
 Ene=               7
 Spin= Alpha
 Occup=    2.00000
   1    0.0071464095166885
   2    -0.019653503701043
   3    -0.019929557567784
   4    -0.041519016464978
   5    -0.019459909004303
   6     0.016352222711579
   7    -0.044280448239558
   8    -0.027741131953358
   9     0.023064824508683
  10    -0.001436775680348
  11    -0.0067183350437064
  12    0.0018273216728274
  13    0.0037198598877928
  14    0.0088557339958823
  15     -0.14757634684672
  16      0.34189523361588
  17       0.4105533861928
  18      0.13433214789553
  19      0.40397873032645
  20     -0.28237940744175
  21      0.09365765689438
  22      0.29684969891844
  23     -0.18885750513403
  24     -0.01183675806352
  25    0.0082092890638355
  26     0.011841172219599
  27    -0.0062824155314833
  28    -0.0065042853295798
  29    -0.059398286446002
  30    -0.059678431506221
  31    0.0041656966574417
  32     0.012278623955884
  33    -0.0041834484535635
  34     -0.02414715472196
  35    -0.006091364948482
  36    -0.00054071057149287
  37    0.0010609519366184
  38    6.351453938431e-05
 Sym= A
 Ene=               8
 Spin= Alpha
 Occup=    2.00000
   1     0.057474570960742
   2     -0.11835690364368
   3    -0.068499671882819
   4     -0.40539345474812
   5    0.0085523963116007
   6    0.00087429894767896
   7     -0.25533443775775
   8    -0.010810707055907
   9    0.00072843751101942
  10     0.017227054671754
  11    0.0023981534472555
  12    -0.0016070257069522
  13    -0.035342993132441
  14    -0.013802424583648
  15     0.057474463900845
  16     -0.11835696542822
  17    -0.068499740918645
  18      0.40539343975477
  19    0.0037466848770541
  20     0.007737637481565
  21      0.25533442851817
  22    -0.0030129551240615
  23    -0.010407854592035
  24      0.02233131363687
  25     0.013790252325331
  26    0.00053817545510369
  27    -0.032396047204657
  28    0.0024671809723971
  29     0.026812461689084
  30     0.051942337310461
  31    0.0088072572188471
  32    0.00048315225769884
  33    0.0011934209838267
  34     0.026812453800872
  35     0.051942325605874
  36    -0.0088072576105093
  37    0.0012866958684327
  38    4.5840143160895e-05
 Sym= A
 Ene=               9
 Spin= Alpha
 Occup=    0.00000
   1    -0.0073891840972939
   2      -1.4684356684196
   3       3.3271850089801
   4    -0.066582886556973
   5    -0.067632442705109
   6      0.35579684582721
   7      0.87606997571306
   8       1.0050988989412
   9     -0.77672930653682
  10     -0.40344756982373
  11     0.028758024083858
  12     -0.28500010265066
  13      0.25128742985167
  14     -0.33813563334559
  15     0.046761767265735
  16      0.14361445401569
  17      -1.1793550815641
  18      0.15918598262316
  19    -0.0090734738064107
  20     0.019686258368944
  21      0.96608855963404
  22    -0.036917036508824
  23      0.12575321768881
  24      0.13987299720144
  25    -0.036004702940587
  26    -0.00064375468824454
  27     -0.26678322529943
  28     0.023304390796611
  29     0.030620500031433
  30    -0.078760078596838
  31    -0.044092117308833
  32    -0.003595695051519
  33     0.024413079072497
  34     -0.80006029035317
  35     -0.98202702262609
  36    -0.040566826782442
  37      0.23725538483613
  38    -0.037693277317322
 Sym= A
 Ene=              10
 Spin= Alpha
 Occup=    0.00000
   1     0.024978985447128
   2      0.11540890439294
   3     -0.69971797048583
   4    -0.064799907759754
   5    0.0065753447042589
   6     -0.01647870148631
   7      -0.6034807744469
   8      0.04714914970146
   9    -0.083364413753244
  10     0.093781360469044
  11    -0.047912068640513
  12    0.0074566220730303
  13     -0.14116002490268
  14     0.011688329896847
  15    0.0012905702315375
  16      -1.4828684655603
  17       3.2700397374996
  18     -0.15085791452932
  19      0.17936400916541
  20     -0.13257786725076
  21     -0.18846501193973
  22     -0.22041734339046
  23       1.4410172423768
  24      0.49464637836722
  25      0.35244894418926
  26    -0.015083625864866
  27      0.25275814904479
  28      0.04173940156428
  29      -1.0481981085295
  30      -1.2361714038591
  31     0.041068304830316
  32     0.020778098846828
  33      0.36982460638912
  34     0.032322737283596
  35    -0.034580993914058
  36     0.036858269782772
  37    0.0093863008296511
  38    -0.0065297278246012
 Sym= A
 Ene=              11
 Spin= Alpha
 Occup=    0.00000
   1    -0.024722159563319
   2      0.34716788505831
   3     -0.47715012323569
   4     -0.59430917108234
   5     0.010386341178936
   6      0.27673513495063
   7       1.5904984102851
   8     -0.80435446405794
   9     -0.05815345682907
  10    -0.071616706330988
  11     -0.11639302225657
  12      0.20301653167293
  13      0.95077437757891
  14      0.10606852784278
  15     0.041140530995684
  16     0.044221529694391
  17     -0.94654758385264
  18      0.18561456724951
  19     0.010724015763633
  20     0.014988996320726
  21      0.69434456723191
  22     0.057482733103168
  23      0.10495004402333
  24      0.12359245349302
  25    -0.014314229238713
  26     0.002065165990093
  27     -0.20552581602985
  28    -0.039391753878921
  29    -0.0069421244524393
  30    -0.098728891163384
  31    -0.0087396553000349
  32    -0.00055688551823649
  33     0.025956275171995
  34        0.667201020018
  35      0.79526021236207
  36    -0.021795085709311
  37     -0.29248615413521
  38      0.15816541553088
 Sym= A
 Ene=              12
 Spin= Alpha
 Occup=    0.00000
   1    -0.012743699727249
   2    -0.026334585852787
   3       0.2751665290488
   4     0.027109541177244
   5    -0.012054616406652
   6     0.024507128253915
   7      0.19631979766676
   8    -0.040230655756599
   9      0.13724220629965
  10    0.0025880218686457
  11     0.034463802069708
  12    0.0052911219053875
  13     0.022504922960395
  14    0.0052979676357809
  15    -0.00019736932171064
  16     0.052589321152783
  17      0.22187551771771
  18     0.038081149310536
  19    -0.011676801432953
  20    -0.069550348491291
  21      0.30743638239141
  22    -0.043276954671043
  23     -0.01781231016107
  24     -0.18103681853398
  25     0.054480480593817
  26    -0.036188678875725
  27    -0.033527613012394
  28    -0.0052966655078499
  29       1.1039519597526
  30      -1.5130123481339
  31     -0.41642565897951
  32      0.18112295926353
  33      0.15347159871931
  34    0.0075859623921646
  35      0.12563169006533
  36    0.0017765065622552
  37    -0.015074004577809
  38    -0.00043416803773771
 Sym= A
 Ene=              13
 Spin= Alpha
 Occup=    0.00000
   1    -0.00010521606458037
   2     0.052228047527044
   3      0.22023875340951
   4    -0.037965385308018
   5    -0.070168886329336
   6     0.012527876124051
   7     -0.30714994240466
   8    -0.032870876586589
   9    -0.035603991659901
  10      0.10538239640016
  11     0.023757246539821
  12     0.083045000914398
  13      0.13214325946692
  14    -0.049286703794503
  15    -0.012726893854035
  16    -0.026257852981116
  17      0.27484143437879
  18    -0.027111809652363
  19     0.018929427982903
  20    -0.019662748398476
  21      -0.1960912458637
  22       0.1151472672973
  23    -0.084414460788797
  24    -0.020976826709453
  25    0.0067183664818946
  26    -0.0045838078500238
  27    0.0088721482763669
  28    -0.034243434950161
  29    0.0075596884535841
  30      0.12552758706506
  31    -0.0018085325822659
  32    -0.0055564374436604
  33    -0.014007567772544
  34       1.1035251440089
  35      -1.5102320881184
  36      0.41727259791866
  37      0.20643884937674
  38      0.12453471182172
 Sym= A
 Ene=              14
 Spin= Alpha
 Occup=    0.00000
   1     0.088731868821397
   2      -0.4209736145334
   3       -0.344559572722
   4      0.13493877660939
   5     -0.57201634374796
   6      0.20673599878765
   7     0.054877171352156
   8     -0.37314517566984
   9      0.13332888877867
  10     0.032072278226607
  11    -0.0053244199044637
  12     0.050536287240412
  13     0.068817240868599
  14     0.016271393634253
  15    0.0050086833392632
  16    -0.033756772553985
  17    -0.0039963885011156
  18    0.0011163468092262
  19     0.014304224557741
  20    0.0084577555486711
  21    -0.017452844486424
  22     0.028748111006968
  23    -0.0049899085043245
  24    -0.00032033884159493
  25    1.2923057616415e-05
  26    -0.00099307521444465
  27    -0.0049365377621792
  28    -0.0031681443779863
  29    -0.022594372955793
  30    -0.007102798197743
  31    -8.3707354975392e-05
  32    -0.000391218866142
  33    -0.00099808523155221
  34      0.88887362371637
  35      0.55143986032859
  36     0.017193953923592
  37    -0.073268558675772
  38     0.028351709074232
 Sym= A
 Ene=              15
 Spin= Alpha
 Occup=    0.00000
   1    -0.0067449059318036
   2    -0.033843971315839
   3      0.14484935377359
   4      0.01342675864816
   5    -0.012055117191361
   6    -0.039248582307762
   7      0.14058450517797
   8     -0.10291840047591
   9     -0.28697231011736
  10    -0.0063437518871213
  11     -0.15955041001918
  12    -0.0079129778996629
  13     0.028804668855613
  14    -0.026855642853797
  15    -0.036349528314884
  16      0.19800269040947
  17      0.13382898685571
  18     0.078152282043433
  19     -0.31362829356271
  20     -0.72400683915696
  21      0.12607114204518
  22      0.38746358142199
  23       1.3783167279905
  24      0.12561325084964
  25     -0.47904051630054
  26     0.027685849591715
  27    -0.050970324209928
  28    -0.017808312250879
  29     -0.38997901370764
  30     -0.48419531471068
  31      0.10996524993403
  32    -0.038334385801941
  33     0.012902340411231
  34    -0.013389867407257
  35     0.067614350993744
  36    -0.010229778197538
  37    -0.0011630641057322
  38     0.026539068667305
 Sym= A
 Ene=              16
 Spin= Alpha
 Occup=    0.00000
   1    -0.020677411660913
   2    -0.099793006604568
   3      0.91746827764633
   4     0.068666160274958
   5    0.0014812374830814
   6    0.00089821233739184
   7      0.66897818677201
   8     0.010227108813244
   9     0.023919291021612
  10    -0.056820831813054
  11    0.0030689749908388
  12    -0.014855225728503
  13     0.067780237701545
  14     0.039601446651568
  15     0.029733678623752
  16      0.23561081784627
  17     -0.96557043970538
  18     -0.71728680557804
  19      -0.1635833456882
  20     0.071892153493402
  21        1.550340370744
  22      0.17638924211941
  23     -0.20693609191294
  24     -0.18664397339946
  25      -0.1207851059981
  26     0.071660960386695
  27      0.17373015288111
  28       0.3704726024465
  29      0.23639806328285
  30    -0.046155250798725
  31     -0.12785988605019
  32    -0.041856960732311
  33    -0.062846360758748
  34    -0.064513804063074
  35      0.13189980932681
  36    -0.024109456972089
  37    -0.0073005934553873
  38    0.0020100603549219
 Sym= A
 Ene=              17
 Spin= Alpha
 Occup=    0.00000
   1    -0.00017354522512335
   2    -0.018461858009218
   3     0.013164594838444
   4    -0.0021232753895093
   5    -0.0017473319204459
   6    -0.018206999187773
   7       0.0231134827766
   8    -0.016714232907563
   9     -0.02021098512662
  10    -0.0059948275513289
  11    -0.022703121504962
  12    0.0038326894891718
  13     0.017344754452459
  14    0.00093232790502943
  15    -0.063468690971872
  16      0.23796321014094
  17      0.85817081511355
  18     0.094294324350899
  19    0.00089507803137858
  20      0.53152438593314
  21      0.13433998979264
  22    0.00051863719455434
  23      0.63264807490371
  24      0.45817149303083
  25      0.12936288220381
  26    0.0015834218426596
  27    0.0032529196022211
  28    -0.00044364619639374
  29     -0.76976257183657
  30     -0.51200649581006
  31      0.24883360376351
  32    -0.0069543578722881
  33       1.4570012939812
  34    0.0052180807888723
  35     0.033751927337472
  36      0.00217204336002
  37    -0.0084395283645082
  38    -0.00084285510430933
 Sym= A
 Ene=              18
 Spin= Alpha
 Occup=    0.00000
   1     0.035365448576339
   2      0.13014628513858
   3      -1.0056598377405
   4     -0.13215394306907
   5     0.017928453590647
   6    -0.012238780962285
   7     -0.84098058563654
   8    -0.095772402754808
   9     0.027513569163736
  10      0.12365731388379
  11    -0.0026148180142239
  12    0.0094668079175644
  13     -0.18256776050122
  14    -0.035854080116632
  15     0.014906059973909
  16     -0.85295919637578
  17       1.5860208974597
  18      0.26479896128686
  19     -0.67296605017249
  20      0.27952181927507
  21      -1.2095635124754
  22      0.83389604528297
  23     -0.38790773822814
  24     -0.20187552984589
  25     -0.22436249982645
  26       0.0888772898761
  27      0.27284084272565
  28      0.19245390221667
  29      0.05764458576913
  30     0.053606368785804
  31      0.10424527903872
  32    -0.096845217558386
  33    -0.043320495317772
  34     0.093238264603834
  35      -0.2634527802022
  36    -0.00014106909311218
  37     0.024343780076148
  38    -0.0074450984386809
 Sym= A
 Ene=              19
 Spin= Alpha
 Occup=    0.00000
   1    -0.063427026801468
   2       0.2380811899975
   3      0.85521141952723
   4    -0.094962651749343
   5      0.49937241004415
   6     -0.18264990492171
   7     -0.13625072303521
   8      0.59268764845782
   9     -0.21996473954192
  10     -0.15012776991405
  11     0.045986768434932
  12      -0.2584678068718
  13      -0.3478857521299
  14     -0.12345333296644
  15    -0.00013837811242217
  16    -0.018042428584099
  17     0.012799643104376
  18    0.0018906767520088
  19    -0.017664688020558
  20    0.0047751664982937
  21    -0.022575909624844
  22     -0.02546413664309
  23    -0.0075045942219399
  24    -0.013447814994154
  25    -0.0088665741687419
  26    0.00085284570454391
  27     0.013207461744347
  28     0.020799618364235
  29    0.0050723156522794
  30      0.03334764841876
  31    -0.0023753206758108
  32    -0.0036246204951187
  33    -0.0075955125311584
  34     -0.77675367248788
  35     -0.50219390273942
  36     -0.23795121589603
  37       1.3748694884783
  38     -0.48591932073049
 Sym= A
 Ene=              20
 Spin= Alpha
 Occup=    0.00000
   1     0.015665390831737
   2     -0.86367732866166
   3       1.5977713035789
   4      -0.2657307992359
   5     0.046548099806027
   6     -0.72499819546238
   7        1.215881913164
   8    -0.098157683234961
   9      0.91381750520445
  10     -0.18845363355251
  11     -0.24932785046971
  12     0.091742281213909
  13      0.27054904702761
  14      0.15321304810723
  15     0.035356308681819
  16      0.13153482172056
  17      -1.0104750876992
  18      0.13153233964178
  19    -0.0054085703985396
  20     0.020882405532337
  21       0.8450695476137
  22    -0.0045380756894628
  23    -0.099884154912783
  24     0.093675126236606
  25     0.033735563819069
  26    -0.0028204150444433
  27     -0.19916484881277
  28     0.014476799715298
  29     0.094145815767143
  30      -0.2652732114947
  31    -0.00024663014867485
  32    0.0011638300157001
  33     0.025475559146893
  34     0.059446115059442
  35     0.056941480569176
  36     -0.10622024418589
  37    -0.072550871747315
  38    -0.075349600793001
 Sym= A
 Ene=              21
 Spin= Alpha
 Occup=    0.00000
   1    -0.0086815597636278
   2    -0.036266104148826
   3      0.22208047928717
   4     0.025047056667329
   5    0.0031571072975672
   6      0.03491131190648
   7      0.19936859917557
   8    -0.051351360518039
   9     0.085002489344425
  10     -0.03159687370059
  11     0.093879418037073
  12    0.0049030189190621
  13     0.046737025869326
  14     0.014306378489191
  15    -0.029551632792518
  16      0.47175584933928
  17     -0.52867540528723
  18     0.090611526431983
  19     -0.33380775325804
  20     -0.14944131389398
  21      0.15440446112874
  22      0.39550334342825
  23      0.27140411925359
  24      0.17394404457706
  25      0.90065190364237
  26    0.0016499875701258
  27     0.034770613562903
  28       0.2984086573848
  29      -0.2092412163343
  30    -0.017774199141972
  31     -0.15330270137604
  32    -0.043846399335891
  33      0.13074902115346
  34     0.008560992450945
  35     0.034014843301925
  36    -0.0091869205517539
  37    -0.012037944706428
  38    -0.0054472994639429
 Sym= A
 Ene=              22
 Spin= Alpha
 Occup=    0.00000
   1     0.028732097503716
   2     -0.46495446969282
   3      0.52805377912344
   4     0.086854662263542
   5      0.24492510088528
   6      0.26548408587868
   7      0.15051630760672
   8     -0.36697092575074
   9     -0.28439560068467
  10     0.087739581684247
  11     0.010209196067609
  12      0.10280804909259
  13      0.10303009668018
  14      0.95155436616306
  15    0.0083478602816111
  16     0.036207757392945
  17     -0.21862954741944
  18     0.023331803453986
  19    -0.034319269838575
  20    0.0073985362016876
  21      0.19370948646328
  22     -0.06656088540634
  23     0.069450412872978
  24     0.025534968453576
  25    -0.014195563110193
  26    -0.0064077281099825
  27    -0.046444819680855
  28     0.095195805076665
  29    -0.0055359175145079
  30     -0.03102386220002
  31     -0.01014722938955
  32    0.0095388353933777
  33    0.0085702220296301
  34      0.19734726854157
  35    0.0083964634674635
  36     -0.15284384066212
  37     -0.10354326382821
  38     0.085713430100432
 Sym= A
 Ene=              23
 Spin= Alpha
 Occup=    0.00000
   1    0.00083667737445397
   2    -0.0094552331045493
   3    -0.059093494924504
   4    0.0053043823333867
   5     -0.02591494359653
   6    -0.088586448023614
   7     0.043194523564459
   8    -0.086826549114473
   9     -0.22317898130666
  10      0.11053984022985
  11     0.026642245057083
  12     -0.18776824113448
  13     0.055367874994836
  14     0.011550397155902
  15    0.0027872159905816
  16    0.0054378841637144
  17    -0.055748992049761
  18    0.0028417543380704
  19    -0.00020381035580368
  20    0.0083936456737398
  21     0.032286238247089
  22    -0.007820115260303
  23     0.049121720136685
  24    2.3026857204553e-06
  25    -0.018219319213054
  26    0.0057406981127181
  27    -0.0021228407271288
  28    -0.0015561092922316
  29    -0.0023651552325105
  30    -0.0061440866117361
  31    -0.0046531679045845
  32    -0.00029584905809306
  33    -0.00085553939496307
  34     -0.19878571508895
  35      0.28809297191898
  36    -0.025750753758522
  37      0.33794313875132
  38       1.0403905195047
 Sym= A
 Ene=              24
 Spin= Alpha
 Occup=    0.00000
   1    0.0027081520926502
   2    0.0049592948354064
   3    -0.053836418383091
   4    -0.0026997449469507
   5    0.0077190804393905
   6    -0.0032624588071737
   7    -0.030693156980502
   8      0.04294878604457
   9    -0.023787728605733
  10    -0.0016872943307859
  11    -0.004981466474216
  12    0.0051807639427863
  13    -0.0025628007097326
  14     0.017701105759674
  15    -0.000367689621743
  16    -0.0046034593892824
  17    -0.041649479574524
  18    -0.0032271810558543
  19    -0.092176449758253
  20     0.015641522280472
  21    -0.038620079518388
  22     -0.23970349342768
  23    0.0066240079397246
  24     0.033954138453861
  25    0.0012327721485334
  26     -0.22339136293298
  27    0.0066206478669591
  28    -0.029031330987068
  29      -0.2072219910954
  30       0.2698896657571
  31      0.02710272532488
  32       1.0943616614911
  33    -0.0095390169824644
  34    -0.0022300853525484
  35    -0.0047886154595791
  36    0.0047152420130736
  37    -0.0011481106659359
  38    -1.0420215393147e-06
 Sym= A
 Ene=              25
 Spin= Alpha
 Occup=    0.00000
   1      0.04752129933206
   2     0.054582897172915
   3     -0.93797957406398
   4     -0.20184328343351
   5    0.0048469738408332