[Molden Format]
made by pyscf v[2.0.1]
[Atoms] (AU)
C   1   6     0.00000000000000     0.00000000000000     0.00000000000000
C   2   6     2.87080956747713     0.00000000000000     0.00000000000000
F   3   9     3.68576231603468     0.00000000000000     2.49925827192064
H   4   1     3.61413204562643    -1.70129116179284    -0.94926139090612
H   5   1     3.61413204562643     1.65808721236366    -1.02285658899748
H   6   1    -0.74332247814930     0.00000000000000    -1.94820142835885
F   7   9    -0.81495274855755     2.16442115410167     1.24962913596032
H   8   1    -0.74332247814930    -1.68719192864789     0.97410071417943
[GTO]
1 0
 s    8 1.00
                  6665  0.00069158396281299
                  1000  0.0053257961529341
                   228   0.027060721042034
                 64.71    0.10165684614077
                 21.06     0.2745748236174
                 7.495    0.44829431892377
                 2.797    0.28490261071525
                0.5215   0.015194859206082
 s    8 1.00
                  6665  -0.00029326965268655
                  1000  -0.0023180354739745
                   228  -0.011499786038565
                 64.71  -0.046826727009787
                 21.06   -0.12846616875047
                 7.495   -0.30126627246289
                 2.797   -0.25563070233011
                0.5215      1.093793361012
 s    1 1.00
                0.1596                   1
 p    3 1.00
                 9.439   0.056979251590039
                 2.002    0.31320721150073
                0.5456    0.76037674173753
 p    1 1.00
                0.1517                   1
 d    1 1.00
                  0.55                   1

2 0
 s    8 1.00
                  6665  0.00069158396281299
                  1000  0.0053257961529341
                   228   0.027060721042034
                 64.71    0.10165684614077
                 21.06     0.2745748236174
                 7.495    0.44829431892377
                 2.797    0.28490261071525
                0.5215   0.015194859206082
 s    8 1.00
                  6665  -0.00029326965268655
                  1000  -0.0023180354739745
                   228  -0.011499786038565
                 64.71  -0.046826727009787
                 21.06   -0.12846616875047
                 7.495   -0.30126627246289
                 2.797   -0.25563070233011
                0.5215      1.093793361012
 s    1 1.00
                0.1596                   1
 p    3 1.00
                 9.439   0.056979251590039
                 2.002    0.31320721150073
                0.5456    0.76037674173753
 p    1 1.00
                0.1517                   1
 d    1 1.00
                  0.55                   1

3 0
 s    8 1.00
                 14710  0.00072067370873197
                  2207  0.0055504869689163
                 502.8   0.028254207662589
                 142.6    0.10639582836653
                 46.47    0.28668420124307
                  16.7    0.44843796582416
                 6.356    0.26464118141135
                 1.316   0.015326060993048
 s    8 1.00
                 14710  -0.00032119389049893
                  2207  -0.0025461915683188
                 502.8  -0.012643359507821
                 142.6   -0.05195749170489
                 46.47   -0.14344713812646
                  16.7   -0.33243762329603
                 6.356   -0.21865906750347
                 1.316     1.0955904138622
 s    1 1.00
                0.3897                   1
 p    3 1.00
                 22.67   0.064834021493887
                 4.977    0.34053535983101
                 1.347    0.73464640679382
 p    1 1.00
                0.3471                   1
 d    1 1.00
                  1.64                   1

4 0
 s    3 1.00
                 13.01   0.033498726389998
                 1.962    0.23480080117413
                0.4446     0.8136829578829
 s    1 1.00
                 0.122                   1
 p    1 1.00
                 0.727                   1

5 0
 s    3 1.00
                 13.01   0.033498726389998
                 1.962    0.23480080117413
                0.4446     0.8136829578829
 s    1 1.00
                 0.122                   1
 p    1 1.00
                 0.727                   1

6 0
 s    3 1.00
                 13.01   0.033498726389998
                 1.962    0.23480080117413
                0.4446     0.8136829578829
 s    1 1.00
                 0.122                   1
 p    1 1.00
                 0.727                   1

7 0
 s    8 1.00
                 14710  0.00072067370873197
                  2207  0.0055504869689163
                 502.8   0.028254207662589
                 142.6    0.10639582836653
                 46.47    0.28668420124307
                  16.7    0.44843796582416
                 6.356    0.26464118141135
                 1.316   0.015326060993048
 s    8 1.00
                 14710  -0.00032119389049893
                  2207  -0.0025461915683188
                 502.8  -0.012643359507821
                 142.6   -0.05195749170489
                 46.47   -0.14344713812646
                  16.7   -0.33243762329603
                 6.356   -0.21865906750347
                 1.316     1.0955904138622
 s    1 1.00
                0.3897                   1
 p    3 1.00
                 22.67   0.064834021493887
                 4.977    0.34053535983101
                 1.347    0.73464640679382
 p    1 1.00
                0.3471                   1
 d    1 1.00
                  1.64                   1

8 0
 s    3 1.00
                 13.01   0.033498726389998
                 1.962    0.23480080117413
                0.4446     0.8136829578829
 s    1 1.00
                 0.122                   1
 p    1 1.00
                 0.727                   1

[5d]
[7f]
[9g]

[MO]
 Sym= A
 Ene=               0
 Spin= Alpha
 Occup=    1.00000
   1       1.0020368365771
   2    0.0047033140634692
   3    -0.0083324162795994
   4    -0.00032126366718789
   5    0.00060213017349868
   6    0.00025927810580579
   7    -0.0011781927272765
   8    0.00032633260335468
   9    9.9297538832914e-05
  10    9.8917693166875e-05
  11    2.1982808526872e-05
  12    3.7015306706323e-06
  13    -0.00011964508958294
  14    1.7750588635006e-05
  15    -0.00018486922190316
  16    8.0401543283059e-05
  17    0.0027764973999871
  18    -0.00039120193372842
  19    1.3116568543539e-06
  20    -1.3708761621124e-05
  21    -0.0014091668129395
  22    -5.7578299831312e-05
  23    0.00013434633490066
  24    2.6106675191511e-05
  25    5.8091338387276e-05
  26    -1.7135116372174e-06
  27    -4.4523540039316e-05
  28     9.25847641197e-05
  29    -1.2697272532387e-05
  30    -1.3628798203653e-05
  31    -0.00011244062792202
  32    -4.0558202808875e-06
  33    -6.2303785059302e-06
  34    -4.1933344773754e-06
  35    -9.0285715962096e-05
  36    3.2061389593818e-05
  37    5.574711954773e-05
  38    -1.4720135089677e-05
  39    1.0262031544906e-05
  40    1.985162989817e-06
  41    3.1503115400125e-05
  42    -3.1749971976007e-06
  43    -7.0999318100351e-05
  44    0.00013208616465486
  45    -5.2320315457298e-05
  46    5.5922744049193e-05
  47    1.4660565004407e-05
  48    -8.6207875676219e-05
  49    0.00025211992477865
  50    -7.6718387602713e-05
  51    -2.5844590860831e-05
  52    4.1392168195383e-06
  53    0.0005843366334391
  54    0.0013105300380828
  55    2.7095217805407e-05
  56    -7.0315251945812e-05
  57    -0.00023233166564707
  58    0.00013651044677552
  59    0.00060989515449094
  60    0.00020217506413995
  61    0.00010875545810974
  62    -0.00032852786982285
  63    -0.00019516730606707
  64    -0.00012448735289339
  65    0.00057554885986451
  66    0.00034963192265839
  67    3.8810354163884e-05
  68    5.6032021296448e-05
  69    -0.00015147683047388
  70    0.00010587109427201
  71    9.7339031392301e-05
  72    0.00066437521833338
  73     0.001363239273779
  74    4.2874482486166e-05
  75    -0.00018887787067629
  76    3.8918694394181e-05
 Sym= A
 Ene=               1
 Spin= Alpha
 Occup=    1.00000
   1    -0.00018520072269307
   2    7.9994884420246e-05
   3    0.0027756378740821
   4    0.0003923981124289
   5    -1.1727922071107e-05
   6    -6.5984699041719e-06
   7    0.0014065959853497
   8    0.00013580077020712
   9    1.0499681603298e-05
  10    2.3425374864067e-05
  11    -0.00011366922321949
  12    1.5294957050501e-06
  13    -4.4429974093444e-05
  14    -8.1336721744522e-06
  15        1.002036080562
  16    0.0046996107701404
  17    -0.0083296884275647
  18    0.00032489707439535
  19    -6.7898742865703e-05
  20    0.00065144149917609
  21    0.0011717730079891
  22    -5.057372628809e-05
  23    0.00035528702316586
  24    7.5716118044125e-05
  25    -2.8138191127068e-05
  26    5.6358762315528e-06
  27    -0.00013299902043969
  28    -1.4256928128307e-05
  29    0.00013889341609305
  30    0.00061385476876547
  31    0.0001862497387866
  32    -0.00010892155684474
  33    -2.9864188413248e-06
  34    -0.00038183622656372
  35    0.00012975292771082
  36    2.0036122856689e-05
  37    0.00067742452324716
  38    -0.00018778971128041
  39    -0.00011332715781399
  40    -3.0521541041252e-06
  41    -2.5080406830931e-05
  42    -4.3187073815388e-07
  43    0.00059615527955566
  44    0.0013208655969843
  45    -3.3867557807892e-05
  46    -0.00016532225702139
  47    -0.00017342889704033
  48    0.00065718985084962
  49    0.0013565123676941
  50    -4.0657678317083e-05
  51    0.0001290424548334
  52    -0.00014438228257639
  53    -6.8116034971478e-05
  54    0.00012975814628053
  55    5.2320823828981e-05
  56    -1.3257739771545e-05
  57    5.7217668304571e-05
  58    -1.3201695849373e-05
  59    -1.4685291716551e-05
  60    -0.00010941352786127
  61    4.0242837485866e-06
  62    -1.7209773624965e-07
  63    -7.2018243928792e-06
  64    9.0984262562896e-05
  65    3.4806098109567e-05
  66    5.4303042125048e-05
  67    -1.6849408313506e-05
  68    -2.5557043827256e-06
  69    3.1996052274414e-06
  70    3.0625463734011e-05
  71    -1.0485978864348e-05
  72    -8.8198076216271e-05
  73    0.00024915563960466
  74    7.7350524349809e-05
  75    1.6000051813005e-05
  76    -2.0598480128647e-05
 Sym= A
 Ene=               2
 Spin= Alpha
 Occup=    1.00000
   1    -0.0001741792465504
   2    0.00021531233404463
   3    0.0026630699423033
   4    -0.00034326692934249
   5    0.00073928805824641
   6    0.00042091434462339
   7    -8.5857052805293e-05
   8    0.0011701396797807
   9    0.00074067379162491
  10    -4.1499135898199e-05
  11    -5.9941176233144e-05
  12    0.00014785218219369
  13    -0.00010333044824613
  14    -0.00010574182559732
  15    1.0894387026874e-05
  16    6.1260827649895e-07
  17    -0.00072104793353002
  18    0.00012882723803288
  19    -7.7531075178414e-06
  20    6.0985723273143e-06
  21    0.00024329109874258
  22    -9.6332461621239e-05
  23    -7.8799326705044e-05
  24    1.6148721703658e-05
  25    1.7852672364264e-05
  26    2.6345059777541e-05
  27    -4.5450839843718e-05
  28    2.1552542564249e-05
  29    2.5411133479005e-05
  30    4.7867456251586e-05
  31    -5.7099456490542e-05
  32    -2.6664101210817e-05
  33    -9.1964249700678e-06
  34    1.0854375581574e-05
  35    0.00012591484675375
  36    2.3211873050878e-06
  37    -7.6386916885425e-06
  38    6.6049082671457e-06
  39    -8.3447541280326e-06
  40    3.9531680306375e-06
  41    -1.5187343009373e-05
  42    7.4570984077184e-06
  43    2.4613897812921e-05
  44    0.00021668477005691
  45    -3.8849763482812e-05
  46    2.1757715742509e-05
  47    1.0633306534521e-05
  48    3.599973846538e-05
  49    -0.00010766227629376
  50    6.8879835985879e-05
  51    -1.0535817828424e-05
  52    -1.1584657627122e-05
  53    -0.0002114714651519
  54    -0.0001070062218109
  55    1.0005525359649e-05
  56    -0.00012720191921587
  57    -7.3187264337555e-05
  58       1.0009500296574
  59    0.00067358249816349
  60    -0.0052485571870459
  61    0.00061429277559908
  62    -0.0017798555542107
  63    -0.00097119005405259
  64    -0.00024785443152285
  65    0.00051240434006318
  66    0.00033894836680461
  67    2.6199259175827e-05
  68    4.3993033789189e-05
  69    -0.00011787572571451
  70    9.1647905072482e-05
  71    7.576994081167e-05
  72    -0.00024334065507426
  73    -0.00017086898437284
  74    1.7756803886898e-06
  75    -0.00013420650736758
  76    -7.7482836714428e-05
 Sym= A
 Ene=               3
 Spin= Alpha
 Occup=    1.00000
   1    1.1526340352948e-05
   2    3.579493888137e-07
   3    -0.00072702984551003
   4    -0.00013402007321629
   5    8.1690186483999e-06
   6    3.1655383454378e-07
   7    -0.00024905294765675
   8    -6.9561739681246e-07
   9    -0.00012396497287275
  10    4.7965188364631e-05
  11    -2.4393039556997e-05
  12    4.2034540965351e-06
  13    -2.694553378731e-05
  14    -1.0893350109775e-06
  15    -0.00016728084170679
  16    0.00025534850356728
  17     0.002660786552877
  18    0.00035758145106791
  19    1.1250678372407e-06
  20    0.00089982929454164
  21    8.6734153655272e-05
  22    5.3719220000292e-06
  23    0.0013912896875287
  24    0.00018788743180214
  25    0.00011959085288161
  26    -5.5207561570627e-06
  27    2.8119549862584e-05
  28    -3.0334659818647e-06
  29       1.0009498137753
  30    0.00043224653972363
  31    -0.0055294469719647
  32    -0.00072344683193343
  33    -2.9060467482874e-05
  34    -0.0021681219051377
  35    0.00016953801024378
  36    -1.2314012272334e-05
  37    0.0005150099539082
  38    -0.00014844053567318
  39    -8.4298436969654e-05
  40    2.8677358055645e-06
  41    -9.9989212721676e-06
  42    -3.1956479541451e-08
  43    -0.00022227381439941
  44    -0.00014282229988122
  45    -6.982910825921e-06
  46    4.1509527402222e-07
  47    -0.00014405432356437
  48    -0.00022365470938739
  49    -0.00014108683051232
  50    -5.5807572231993e-06
  51    -3.130126527079e-07
  52    -0.00015544936986349
  53    2.5748820107845e-05
  54    0.00021789875674819
  55    3.803830161666e-05
  56    -3.6494644187252e-06
  57    2.3220152716565e-05
  58    2.5493552876391e-05
  59    4.7757650649224e-05
  60    -6.0789562987718e-05
  61    2.6234797590103e-05
  62    1.5169293628014e-05
  63    -2.2087109936008e-06
  64    -0.00012195770927145
  65    -8.1400854389106e-06
  66    1.4898729777791e-07
  67    1.154797205063e-05
  68    -2.2203441603409e-06
  69    6.6662849075631e-07
  70    -1.2135291561109e-05
  71    1.0866951605607e-05
  72    3.6587343025123e-05
  73    -0.00010129891881135
  74    -7.051176449095e-05
  75    -6.131485639657e-06
  76    -1.4821201591092e-05
 Sym= A
 Ene=               4
 Spin= Alpha
 Occup=    1.00000
   1    -0.0015294557555805
   2    -0.020482199415207
   3    -0.045716052271504
   4    -0.031299236381693
   5    -0.0029013235261129
   6    -0.0064559445429772
   7    -0.032563139096826
   8    -0.016109737214914
   9     0.023600333515799
  10    0.0019923212011483
  11    -9.3207242729225e-06
  12    0.00036227270565129
  13    -0.00058468497453932
  14    -0.0019910716707836
  15    -0.0012535590958019
  16    -0.00065173468473759
  17      0.01140212017777
  18    0.0008929821885169
  19    -0.0049663975402234
  20    0.00011265899793956
  21    -0.028147117725394
  22     0.025243970992904
  23    -0.011852280573249
  24     0.011193987395261
  25    -0.017621995171396
  26     0.026213531004757
  27    -0.0087496478457483
  28    0.0050246757756968
  29    -0.00078241859694028
  30    0.0052850150855438
  31     0.015192057180497
  32     -0.42094831525266
  33      0.49906431317725
  34      0.13648612338672
  35     -0.29821715341059
  36      0.35284078828573
  37     0.093935269674031
  38    -0.004065502005568
  39    0.0068663180948669
  40    -0.0088233405273428
  41    0.0026060740929119
  42    -0.0029529414877162
  43     0.057504091412421
  44     0.058268088049316
  45    0.00054131319161011
  46    -0.00056357378811378
  47    0.0017400753387669
  48    -0.021117678463072
  49    -0.023296199056892
  50    0.0015452626613608
  51    -0.0010231519160504
  52    -1.0460870889265e-06
  53     0.012371268503583
  54     0.024539716813717
  55    -0.0011306443873103
  56    0.00017786698967732
  57    0.00082868953807985
  58    -0.0010722399635805
  59    -0.0037709569583996
  60    0.0029337294198099
  61    -0.0049185724946356
  62    0.0020423035163234
  63    -0.0048380320833777
  64    0.0041302806868891
  65    0.0023231131349272
  66    -0.0031788747277756
  67    6.6614044069931e-05
  68    0.00078517148208999
  69    -0.00021235062246195
  70    0.00049628845789551
  71    0.00018450161243141
  72    -0.0077352998230733
  73    -0.015118569076921
  74    -0.00097997524101401
  75    -0.0011509958197826
  76    -0.00067413474605214
 Sym= A
 Ene=               5
 Spin= Alpha
 Occup=    1.00000
   1    0.00074614754466655
   2     0.021964693434057
   3       0.0618948368471
   4     0.035197000484392
   5    -0.0088780118758052
   6    0.0085776994158109
   7      0.01803387395255
   8    -0.023921396682814
   9    -0.019824340578953
  10    -0.0024510704997086
  11    7.1436819120832e-05
  12    0.00044607657817604
  13    7.3506710243681e-06
  14    -0.00091298450138586
  15    0.0012416305589295
  16    0.0022520380013234
  17    -0.00018256534367563
  18    -0.0013676592188962
  19    -0.0041792445346745
  20    0.0028699269763343
  21     0.021010080957438
  22     0.024866565638916
  23     0.010531393928442
  24    -0.013279958618102
  25     0.019749984139239
  26     0.023116210300217
  27     0.010541005185267
  28    0.0048415790153654
  29    0.0012654736392278
  30    -0.015367803591401
  31    -0.028693710831199
  32      0.47196339219104
  33      0.44259395468162
  34     -0.15643160324795
  35      0.33509878655371
  36      0.31305253335362
  37     -0.10853249512912
  38    0.0049751451608046
  39    -0.0075959602063767
  40    -0.0077292966101279
  41    -0.0025481794949141
  42    -0.0029582075430733
  43     0.014579316239418
  44     0.019305521836621
  45    -0.0018108299995216
  46    -0.00082300909705646
  47    0.0003141452302523
  48    -0.054262526565699
  49    -0.053021270933711
  50    -0.0011250541641084
  51    -0.00089099456495131
  52    -0.0014358209634299
  53    -0.017057481221061
  54    -0.025759911403922
  55    0.0018765681909585
  56    0.00058851915503167
  57    -0.0011213063403226
  58    -0.0010101799985322
  59    -0.00078357868133552
  60     0.011187499236411
  61    -0.00089683991774871
  62    -0.0015812364908858
  63    0.00020051454035734
  64    -0.002297132914199
  65    -0.0023512500748119
  66    -0.00036499357462031
  67    -0.0002897192780058
  68    -0.00035335250933603
  69    3.364245955796e-05
  70    -4.9820775413145e-05
  71    -0.00033461600908608
  72    0.0079563269479624
  73    -0.024074176077775
  74    -0.00091579887398475
  75    0.00022686841168133
  76    0.00035695657780908
 Sym= A
 Ene=               6
 Spin= Alpha
 Occup=    1.00000
   1    -0.001420074836453
   2    -0.0012219672281889
   3     0.006319354757996
   4    -0.0019451174569746
   5    0.0013073140507002
   6    0.0015761832704108
   7     0.031921433112374
   8    -0.0075927790166066
   9    -0.015452135791731
  10    0.00066929579638654
  11     0.014593871410188
  12    0.0031601738686213
  13    -0.022767738396146
  14     0.021067973067964
  15    -0.001387752898212
  16    -0.028271587292195
  17    -0.075721133501249
  18     0.046244441877222
  19    -0.012904965717408
  20    3.8187528964658e-05
  21     0.031871716700158
  22     0.018576196889951
  23     0.025454409424789
  24    -0.00046587494711943
  25    3.7666247466272e-05
  26    0.0021208412063704
  27    -0.0023673987475898
  28    -0.00028113644718341
  29    0.00035237715439696
  30    -0.0012181181235446
  31    -0.0084517225084243
  32    0.0015854319359785
  33    -0.0032893707013317
  34    0.0010795159506302
  35    -0.004002989999869
  36    -0.0026406122521168
  37     0.002342449777048
  38    -0.00030271331580401
  39    -0.00067299494384135
  40    0.00028012053423489
  41    -6.7831080357315e-05
  42    -0.0003994729258352
  43     0.022155205963428
  44     0.035029126817086
  45    0.0021513986576355
  46    0.0014722533737177
  47    0.00030121490244088
  48    -0.010472649231742
  49     0.013169806076808
  50    -0.00013371147921717
  51    -0.00035079679173627
  52    -0.0010042840954026
  53     0.013944447676021
  54     0.010532079913565
  55    -0.0019393869208868
  56    0.00045159282336113
  57    0.00056577357075369
  58    -0.0013399321000258
  59    -0.001015155731712
  60     0.012271887627308
  61      0.61836069784413
  62        0.243934884513
  63    -0.038506300591086
  64      0.43882886863175
  65      0.16996555344642
  66    -0.028859317438637
  67    0.00047465555668022
  68    -0.0061103045665745
  69    -0.0017194172615248
  70    0.0072818261453488
  71    -0.0081158927463977
  72     0.035869039642844
  73     0.034026519931099
  74    -0.0016805475718704
  75     0.001134110730048
  76    0.00083060572759273
 Sym= A
 Ene=               7
 Spin= Alpha
 Occup=    1.00000
   1    -0.00051734621532825
   2    -0.00043040024677765
   3    0.0087912450399167
   4    0.00047669398093597
   5    0.0021712680677807
   6    -0.0017445692878474
   7     0.015867147827222
   8    -0.021569496225166
   9     0.028664270902359
  10      0.02661633058319
  11    -0.0028348846056137
  12     0.018698677334213
  13     0.010388262301171
  14    0.0087710794992567
  15    -0.00090441620289336
  16    -0.0074245284015828
  17    -0.011672663059239
  18      0.01087335352291
  19    0.0014456249466184
  20    -0.0064324666290105
  21     0.020364023088439
  22     0.021529233259461
  23      -0.0169362258758
  24    0.0006213805588506
  25    0.0017202907262872
  26    0.00053993794628974
  27    -0.00048061608662668
  28    -0.00099265855782174
  29    -0.0014481570985323
  30    -0.0037544366835506
  31    0.0080134612636907
  32    0.0048074288442682
  33    -0.0041550775439006
  34    -0.0010238032544368
  35    -0.0024891767122949
  36    -0.0029221888658741
  37    -0.00062623921328483
  38    -0.00038409285641966
  39    -0.00026116861266454
  40    4.0001803215571e-05
  41    0.00023697022346065
  42    -0.00045076848184943
  43    0.0029984122398186
  44    0.0089695253423485
  45    0.00012632730606722
  46    -4.7662358601699e-05
  47    0.00049515113107317
  48    -0.0029301132075136
  49    -0.024130513345253
  50     0.001221295265943
  51    5.7323227943495e-05
  52    -0.0010274439838672
  53     0.054197021824264
  54     0.059558631016739
  55    0.00014439230377787
  56    0.0018891581318039
  57    -0.00027143989429024
  58    -0.00014625107749712
  59    0.0031074356903547
  60    0.0061831075754027
  61      0.14827746149989
  62     -0.28369778015772
  63      0.58526515777634
  64      0.10458175696957
  65     -0.20150609624129
  66       0.4132071405941
  67    -0.0091805252840634
  68    0.0022408342542009
  69    -0.0062028762674781
  70    -0.0034374065014107
  71    -0.0041416113912831
  72    -0.042295057540226
  73    -0.044158017442981
  74    -0.00087669109159115
  75    8.4861086871558e-06
  76    -0.0013319553660824
 Sym= A
 Ene=               8
 Spin= Alpha
 Occup=    1.00000
   1    0.0023550936970064
   2     -0.13818152871018
   3    0.0049079653073426
   4     0.090275518861435
   5     -0.23959770524288
   6     -0.13674296027081
   7     0.026477099785697
   8    -0.046678495920696
   9    -0.027486991858752
  10    0.0099994360119245
  11     0.013613668824291
  12    -0.038429059459818
  13     0.027851824130543
  14     0.025377393102648
  15    -0.00063378042225248
  16     0.012063823202399
  17    -0.0047071442968847
  18     -0.02618287534349
  19    0.0063442661180066
  20    -0.0019671523609105
  21    -0.011734348161205
  22    0.0020540553472168
  23    0.0025772230930449
  24    0.0021290830295461
  25    0.0054987361872576
  26    0.00039141615953568
  27    -0.003585224014818
  28    0.0095884217375281
  29    0.00031089011779637
  30    0.0013898783954127
  31    -2.5291789220948e-05
  32    -0.0016253799892081
  33    -9.1436884792976e-05
  34    -0.0042531514176746
  35       0.0026281468032
  36    -0.00033375246528676
  37    -0.0025759252080788
  38    -8.5878513517385e-05
  39    0.00042311487469924
  40    -8.4527673093079e-05
  41    6.7610047934505e-06
  42    0.00027051085470691
  43     -0.02235331515334
  44    -0.018365487960373
  45    0.00044089309916645
  46    0.00043491487911379
  47    0.00010651475505701
  48     0.010750248749487
  49     0.010804855520095
  50    -0.0010946131235436
  51    -0.00076119719567009
  52    -0.00017417861782598
  53     0.016022315161901
  54     0.019153126870058
  55    0.0015638903573329
  56    -0.0077034581298059
  57    -0.0064530344570684
  58    0.0072763523165301
  59     -0.21815123079649
  60      -0.2013493103766
  61     -0.13568796713194
  62      0.38330435836167
  63      0.22208746813481
  64    -0.090569573912745
  65      0.25433935554007
  66       0.1475676588135
  67    0.0030411249971865
  68    0.0050673330459639
  69     -0.01356617031023
  70    0.0099093801973725
  71    0.0086645360644163
  72     0.018257905390287
  73     0.020795206532004
  74    0.0015065177391441
  75    -0.0093640503578197
  76    -0.0034341920148485
 Sym= A
 Ene=               9
 Spin= Alpha
 Occup=    1.00000
   1    -0.0012277679089815
   2    -0.0018389633129477
   3     0.010913885915725
   4    0.0031015476973332
   5    0.00033263270938153
   6    -0.0067291745914619
   7     0.015438616759935
   8    0.0042349824239956
   9    -0.00068398313263543
  10    0.00044848253403603
  11    -0.0047727076188946
  12    0.00037070263542219
  13    -0.0013935646599912
  14    -0.00037587454582716
  15    -0.0064888690593045
  16    -0.066558285105433
  17    -0.037410425193927
  18    -0.028868547357015
  19    -0.00012465322281481
  20    -0.091163074775049
  21    -0.00089995392958732
  22    -0.00074661619040061
  23    -0.012792256110459
  24    -0.0056284789709889
  25    -0.0017940819281094
  26    0.00072279528061523
  27    -0.00067344786702116
  28    0.0003967567524964
  29    -0.0010136921085437
  30      0.44326989951826
  31      0.52954950458009
  32      0.11554192867712
  33    0.0097612470002123
  34      0.28804909720264
  35     0.080523709468459
  36    0.0064151621899473
  37      0.20002459765364
  38    -0.0066707698107635
  39    -0.0043015350693037
  40    -0.00027035955174929
  41    -0.00070266425383279
  42    -3.688867827589e-05
  43    -0.0014427216975193
  44     0.014928241911044
  45    -0.0013351817158744
  46    5.0963627978155e-06
  47    -0.0039042294894139
  48    -0.0012061498309942
  49     0.013115943667055
  50    -0.0013420736865967
  51    -0.00023841406371821
  52    -0.0039487161548231
  53    -0.0026694302556857
  54    -0.0028444978019267
  55    0.00053248603147133
  56    -0.00025250510602279
  57    0.00096435147450386
  58    0.00035727441865634
  59    0.0008586735099436
  60    -0.0018539281904226
  61    -0.00051552104509283
  62    -0.0014222187555831
  63    -0.0011718207922989
  64    -0.0022368036097794
  65    -0.00087935233890032
  66    0.00055203607561325
  67    9.7591290021592e-05
  68    -6.3308611977706e-05
  69    -6.7289583889471e-05
  70    2.9263976350264e-05
  71    7.0790596894517e-05
  72    -0.0010512493644391
  73    0.0078597213387776
  74    -0.00033559613148348
  75    -3.5235659140139e-05
  76    -0.00042180282237765
 Sym= A
 Ene=              10
 Spin= Alpha
 Occup=    1.00000
   1    -0.006542643847658
   2    -0.067206913405184
   3    -0.037249411704092
   4     0.029130387512133
   5    -0.078761313808577
   6    -0.045227486587618
   7    0.0021122861200854
   8    -0.011199554639133
   9    -0.0071623041282602
  10    0.0014658971130195
  11    0.0011194176119069
  12    -0.0041820219915209
  13    0.0026308584617561
  14    0.0024294738301235
  15    -0.001286810615035
  16    -0.0026869836247559
  17    0.0084526097632323
  18    -0.001473856016253
  19    -0.0062795835495913
  20    -0.0030717101368879
  21    -0.014264119807237
  22    -0.0017028436906492
  23    0.0042370636591727
  24    0.0011303196490153
  25    0.0026809786363098
  26    -3.8664924681017e-05
  27    -0.0011056236527928
  28    0.0039567680814645
  29    0.00038336515532257
  30    0.00083246550142193
  31    -0.0022743436536803
  32    0.00056753526382598
  33    -0.00039077281098773
  34    -0.0017368356235841
  35    0.0021851648084453
  36    0.00080169187722183
  37    -0.00035513929982439
  38    -9.1322509511826e-05
  39    -5.290052529376e-05
  40    5.9113304724397e-05
  41    -7.774182342133e-05
  42    8.0103688882137e-05
  43    -0.0019115588782771
  44    -0.0015855804081287
  45    -0.0004673103605551
  46    0.0010183195697985
  47    0.00027428275909836
  48    -0.0011149511979761
  49    0.0081908402642482
  50    0.00031855449213867
  51    -0.00037674415690699
  52    -0.00025821440822242
  53    -0.001475787332316
  54     0.014729637908587
  55    0.0012966671249683
  56    -0.0034206464913635
  57    -0.0019332061822553
  58    -0.0016229482496132
  59      0.44346983234863
  60      0.53036080956243
  61    -0.093804581753631
  62      0.25688219564929
  63      0.14513308300242
  64    -0.065154659192734
  65      0.17871782367252
  66      0.10028525381936
  67    0.0011762894841972
  68    0.0019399503419137
  69    -0.0054696476382115
  70    0.0040771144771471
  71    0.0034435353291359
  72    -0.00091103034459573
  73     0.014783370574809
  74    0.0011684125277174
  75    -0.0033413316062666
  76     -0.00196421147147
 Sym= A
 Ene=              11
 Spin= Alpha
 Occup=    1.00000
   1    -0.00067840944641485
   2     0.012585140909235
   3    -0.0042791051894212
   4     0.025688038788697