[Molden Format]
made by pyscf v[2.0.1]
[Atoms] (AU)
C   1   6     0.00000000000000     0.00000000000000     0.00000000000000
C   2   6     2.85207482267819     0.00000000000000     0.00000000000000
F   3   9     3.65415199667903     0.00000000000000     2.45977207315200
H   4   1     3.58561868306314    -1.67891019462705    -0.93677358840720
H   5   1     3.58561868306314     1.67891019462705    -0.93677358840720
H   6   1    -0.73354386038494    -0.30605812297611    -1.89805495782401
F   7   9    -0.80207717400084     2.31142966595619     0.84129159700793
H   8   1    -0.73354386038494    -1.45450033377066     1.25726408388254
[GTO]
1 0
 s    8 1.00
                  6665  0.00069158396281299
                  1000  0.0053257961529341
                   228   0.027060721042034
                 64.71    0.10165684614077
                 21.06     0.2745748236174
                 7.495    0.44829431892377
                 2.797    0.28490261071525
                0.5215   0.015194859206082
 s    8 1.00
                  6665  -0.00029326965268655
                  1000  -0.0023180354739745
                   228  -0.011499786038565
                 64.71  -0.046826727009787
                 21.06   -0.12846616875047
                 7.495   -0.30126627246289
                 2.797   -0.25563070233011
                0.5215      1.093793361012
 s    1 1.00
                0.1596                   1
 p    3 1.00
                 9.439   0.056979251590039
                 2.002    0.31320721150073
                0.5456    0.76037674173753
 p    1 1.00
                0.1517                   1
 d    1 1.00
                  0.55                   1

2 0
 s    8 1.00
                  6665  0.00069158396281299
                  1000  0.0053257961529341
                   228   0.027060721042034
                 64.71    0.10165684614077
                 21.06     0.2745748236174
                 7.495    0.44829431892377
                 2.797    0.28490261071525
                0.5215   0.015194859206082
 s    8 1.00
                  6665  -0.00029326965268655
                  1000  -0.0023180354739745
                   228  -0.011499786038565
                 64.71  -0.046826727009787
                 21.06   -0.12846616875047
                 7.495   -0.30126627246289
                 2.797   -0.25563070233011
                0.5215      1.093793361012
 s    1 1.00
                0.1596                   1
 p    3 1.00
                 9.439   0.056979251590039
                 2.002    0.31320721150073
                0.5456    0.76037674173753
 p    1 1.00
                0.1517                   1
 d    1 1.00
                  0.55                   1

3 0
 s    8 1.00
                 14710  0.00072067370873197
                  2207  0.0055504869689163
                 502.8   0.028254207662589
                 142.6    0.10639582836653
                 46.47    0.28668420124307
                  16.7    0.44843796582416
                 6.356    0.26464118141135
                 1.316   0.015326060993048
 s    8 1.00
                 14710  -0.00032119389049893
                  2207  -0.0025461915683188
                 502.8  -0.012643359507821
                 142.6   -0.05195749170489
                 46.47   -0.14344713812646
                  16.7   -0.33243762329603
                 6.356   -0.21865906750347
                 1.316     1.0955904138622
 s    1 1.00
                0.3897                   1
 p    3 1.00
                 22.67   0.064834021493887
                 4.977    0.34053535983101
                 1.347    0.73464640679382
 p    1 1.00
                0.3471                   1
 d    1 1.00
                  1.64                   1

4 0
 s    3 1.00
                 13.01   0.033498726389998
                 1.962    0.23480080117413
                0.4446     0.8136829578829
 s    1 1.00
                 0.122                   1
 p    1 1.00
                 0.727                   1

5 0
 s    3 1.00
                 13.01   0.033498726389998
                 1.962    0.23480080117413
                0.4446     0.8136829578829
 s    1 1.00
                 0.122                   1
 p    1 1.00
                 0.727                   1

6 0
 s    3 1.00
                 13.01   0.033498726389998
                 1.962    0.23480080117413
                0.4446     0.8136829578829
 s    1 1.00
                 0.122                   1
 p    1 1.00
                 0.727                   1

7 0
 s    8 1.00
                 14710  0.00072067370873197
                  2207  0.0055504869689163
                 502.8   0.028254207662589
                 142.6    0.10639582836653
                 46.47    0.28668420124307
                  16.7    0.44843796582416
                 6.356    0.26464118141135
                 1.316   0.015326060993048
 s    8 1.00
                 14710  -0.00032119389049893
                  2207  -0.0025461915683188
                 502.8  -0.012643359507821
                 142.6   -0.05195749170489
                 46.47   -0.14344713812646
                  16.7   -0.33243762329603
                 6.356   -0.21865906750347
                 1.316     1.0955904138622
 s    1 1.00
                0.3897                   1
 p    3 1.00
                 22.67   0.064834021493887
                 4.977    0.34053535983101
                 1.347    0.73464640679382
 p    1 1.00
                0.3471                   1
 d    1 1.00
                  1.64                   1

8 0
 s    3 1.00
                 13.01   0.033498726389998
                 1.962    0.23480080117413
                0.4446     0.8136829578829
 s    1 1.00
                 0.122                   1
 p    1 1.00
                 0.727                   1

[5d]
[7f]
[9g]

[MO]
 Sym= A
 Ene=               0
 Spin= Alpha
 Occup=    1.00000
   1    -0.00010704437204093
   2    -0.00063707281769509
   3    0.0023684090892558
   4    -0.0011403440486735
   5    -6.1652312682506e-05
   6    -3.5574434292309e-05
   7    0.0009763998013618
   8    0.0001283048547725
   9    -0.00012394760773552
  10    0.00020208548454067
  11    -3.2419310056506e-05
  12    3.5410861210052e-06
  13    -0.00028391597719294
  14    -9.8169991006218e-06
  15       1.0022310822379
  16    -0.00084213105130403
  17    -0.011652875633546
  18    -0.000542488473064
  19    -0.00011987269037103
  20    0.0023369294160714
  21    0.00088003525192949
  22    -4.5881026534556e-05
  23    0.0012993383921297
  24    9.8979364502574e-05
  25    1.0137648147122e-05
  26    2.4824025864009e-05
  27    -0.0001245254034361
  28    -1.5096760660249e-05
  29    0.00014589854638845
  30    2.9557703990506e-05
  31    -0.00026866648588864
  32    0.00036845620326883
  33    -5.0806523433047e-06
  34    0.00093137427887277
  35    0.00046736444974485
  36    1.4690241762796e-05
  37    0.0014474855304869
  38    -0.0003075455218611
  39    -0.00015876675861779
  40    -9.8125784760324e-07
  41    -2.5480025354661e-05
  42    -1.5289936255945e-07
  43    -0.0031093656808668
  44    0.00076456508602879
  45    0.00011652630953657
  46    -0.00055183006790969
  47    -0.00035169637173057
  48    -0.0030737429476649
  49    0.00080221014027525
  50    9.5044313115299e-05
  51    0.00051892606731712
  52    -0.00032174314307288
  53    0.00016893082572594
  54     0.000372687606941
  55    4.077402388159e-05
  56    -1.2770606343332e-05
  57    4.6404579485779e-05
  58    -9.3839248240855e-06
  59    3.333430119292e-05
  60    -3.8923197558348e-05
  61    0.00019582075541678
  62    4.4887359667009e-06
  63    -3.9391926302523e-05
  64    0.00028841219790159
  65    3.811847398853e-05
  66    3.5153947813752e-05
  67    -1.3793871938573e-05
  68    5.2115883191389e-06
  69    6.656313825668e-06
  70    2.2285978296223e-05
  71    -5.9614534422801e-07
  72    -1.6773684000993e-05
  73    0.00029669009955725
  74    6.1559993693498e-05
  75    8.0444879687385e-07
  76    -3.2811813245706e-05
 Sym= A
 Ene=               1
 Spin= Alpha
 Occup=    1.00000
   1       1.0022308352741
   2    -0.00079100703115739
   3    -0.011623732197295
   4    0.00051215112739046
   5    0.0022031268444046
   6    0.00067912692369336
   7    -0.00089180891346048
   8    0.0012221732653319
   9    0.00039829594262646
  10    7.8999401795673e-05
  11    1.0936023444062e-05
  12    3.2473529564931e-05
  13    -0.00013751357968935
  14    -1.3675269366645e-05
  15    -0.00010793506529631
  16    -0.0006347267428194
  17    0.0023677315101968
  18    0.0011469115152979
  19    -2.0903852801798e-05
  20    -7.476902555095e-05
  21    -0.00097317762855277
  22    -0.00016168252274495
  23    7.737729335866e-05
  24    0.00015268916182935
  25    2.0404287970108e-05
  26    2.4091264082603e-05
  27    -0.00031097624601935
  28    2.8174713741463e-05
  29    -9.4384190631875e-06
  30    3.2773324656489e-05
  31    -3.9574129296619e-05
  32    -0.00019550147753875
  33    -3.7593943103752e-05
  34    -8.7523420884283e-06
  35    -0.00028886620263463
  36    2.1118252487164e-05
  37    4.8238873711005e-05
  38    -8.7938076515337e-06
  39    -1.3548632122617e-06
  40    4.6781497919916e-06
  41    2.5099407316057e-05
  42    -5.0412293957172e-06
  43    0.00017922376408796
  44    0.00037625494002634
  45    -4.0804119645096e-05
  46    4.8922091690905e-05
  47    4.2824760122073e-06
  48    -1.6032916232319e-05
  49    0.00029939613199513
  50    -6.128758099613e-05
  51    -3.1412371225955e-05
  52    -1.0564483726462e-05
  53    -0.0030646266131532
  54    0.00077472624452328
  55    -0.00011545773431021
  56    -0.00014200630618341
  57    -0.00063409698047815
  58    0.00014545563480905
  59    2.6851608345832e-05
  60    -0.00027187899034437
  61    -0.0003669381568809
  62    0.0008794500490855
  63    0.00031439653655274
  64    -0.00046418601734963
  65    0.0013585549226151
  66    0.00050961664892136
  67    0.0001185944100682
  68    5.4515205071917e-05
  69    -0.00017981536993501
  70    0.00021991973935264
  71    0.00014929327246792
  72    -0.003022765817397
  73    0.0008139707496117
  74    -9.3834543853089e-05
  75    -0.00047667808282306
  76    0.00037355916559539
 Sym= A
 Ene=               2
 Spin= Alpha
 Occup=    1.00000
   1    -4.079736700156e-05
   2    6.5431349490003e-05
   3    0.0030148739236439
   4    -0.00024954785168282
   5    0.00049962654720845
   6    0.00017529012211105
   7    9.7293944040234e-06
   8    0.0011646829381728
   9    0.00047530860730778
  10    3.2944591033258e-06
  11    -4.5743456151864e-06
  12    -1.2079844307677e-05
  13    1.2005044623521e-06
  14    -8.2295914835918e-06
  15    2.4737002000828e-05
  16    3.3418475814409e-05
  17    -0.00089302266239918
  18    0.0001379669975653
  19    2.6194569740958e-06
  20    6.1032734188267e-06
  21    0.00035010042167804
  22    -0.00011853793588154
  23    -4.6557787722352e-05
  24    -3.0216835271103e-06
  25    4.7900959173749e-06
  26    2.5599760056087e-05
  27    -8.2071037771464e-05
  28    1.8429333143916e-05
  29    2.8162101337923e-05
  30    5.7110017955494e-05
  31    -4.5806339832489e-05
  32    -4.3706561307809e-05
  33    2.1795306133283e-06
  34    6.738209637842e-06
  35    0.00011679044346417
  36    -1.0722236762346e-05
  37    -1.0650433691757e-05
  38    1.0034977018621e-05
  39    -6.8727984731523e-06
  40    3.3409760361437e-06
  41    -1.3705967415844e-05
  42    9.1459281748893e-06
  43    1.8774757321691e-05
  44    0.00019323983125954
  45    -2.7953546007291e-05
  46    2.0005056150886e-05
  47    -5.9578913092938e-06
  48    3.651329410454e-05
  49    -0.00012116991367553
  50    7.7475894149537e-05
  51    -1.2491653456525e-05
  52    -2.0053326013657e-05
  53    -0.00025166841695587
  54    -0.00020393770002479
  55    -7.3704631924771e-06
  56    -0.00013856129544106
  57    -7.3444574199468e-05
  58       1.0009674252899
  59    -0.0039808382679553
  60    -0.010668041583661
  61    0.00092980820875741
  62    -0.0025578134516416
  63    -0.00098471444528864
  64    -2.0809339093049e-05
  65    7.5956370614715e-05
  66    -9.6393430858981e-06
  67    6.120063096887e-05
  68    2.962956713486e-05
  69    -8.7729889633267e-05
  70    0.00011429341615856
  71    8.4202809230275e-05
  72    -0.00027549269793265
  73    -0.00023441523408471
  74    -1.3859069265574e-05
  75    -0.00016054480894087
  76    -3.5221973483503e-05
 Sym= A
 Ene=               3
 Spin= Alpha
 Occup=    1.00000
   1    2.4594118384269e-05
   2    3.4508663726041e-05
   3    -0.00088715714287239
   4    -0.00013620106878043
   5    3.857916387503e-06
   6    5.4669270148896e-06
   7    -0.00034594925719381
   8    -3.1139437040763e-06
   9    -0.00012841332109883
  10    7.7721323607991e-05
  11    -1.9601032215793e-05
  12    -8.5012340548272e-06
  13    -3.5389176934852e-05
  14    1.802788837897e-06
  15    -4.2037832738581e-05
  16    6.0436834459545e-05
  17    0.0030092359010124
  18    0.00024858692954067
  19    -5.7966922279015e-06
  20    0.00051932950292663
  21    -6.7149746172467e-06
  22    4.8582898541705e-05
  23    0.0012566765776812
  24    -9.078730685692e-06
  25    1.1107203504634e-05
  26    -6.7904539403221e-06
  27    -5.0928653660776e-06
  28    1.658994189719e-06
  29       1.0009686854804
  30    -0.0038877602006641
  31    -0.010559649320916
  32    -0.00088163859428535
  33    -4.5686599262091e-05
  34    -0.0027079910251225
  35    5.4771430320337e-05
  36    -3.1743762243639e-05
  37    9.112184975044e-05
  38    -0.00015648262821825
  39    -9.0278501157384e-05
  40    3.4925986605588e-06
  41    -1.1433735262128e-05
  42    9.2007672063724e-07
  43    -0.00025109555796217
  44    -0.0002021107480843
  45    7.0097497262923e-06
  46    -2.1292493320078e-05
  47    -0.00015572351062354
  48    -0.00027495241467827
  49    -0.00023297294105138
  50    1.3507990995418e-05
  51    2.1462515370972e-05
  52    -0.00016331846439261
  53    1.6795298565562e-05
  54    0.00019098300929436
  55    2.8119768632153e-05
  56    -1.2503848170198e-05
  57    1.6852705107129e-05
  58    2.8196396706952e-05
  59    5.7298843351242e-05
  60    -4.6046470458085e-05
  61    4.369909832942e-05
  62    5.4540647433825e-06
  63    4.2967486364943e-06
  64    -0.00011737573463961
  65    -6.3927520590485e-06
  66    -1.3624035533005e-05
  67    9.0693117974384e-06
  68    -6.273087019143e-06
  69    3.717280610012e-06
  70    -1.4271746005874e-05
  71    9.5796005921287e-06
  72    3.8509569624144e-05
  73    -0.00011912517588574
  74    -7.7544173025568e-05
  75    -1.4414326268084e-05
  76    -1.8722975864265e-05
 Sym= A
 Ene=               4
 Spin= Alpha
 Occup=    1.00000
   1    -0.00094369450267502
   2    0.00041775888972139
   3     0.015298225731904
   4      0.00204323033952
   5    -0.0066744113110703
   6    0.0025379766269128
   7    -0.0077450006936877
   8    -0.024759419634873
   9     0.010950152435611
  10    1.8287516159288e-05
  11    -2.1818002946088e-05
  12    0.00040870450276844
  13    -0.00053895329366564
  14    -0.0013625161958128
  15    0.00013819533962898
  16    0.00045507105815441
  17    0.0033617908273601
  18    9.2554605993051e-05
  19    0.0095356139978383
  20    0.00075751356485255
  21    -0.0035516814445887
  22      0.03822769010563
  23    -0.0013853324160838
  24    -0.0011658513308274
  25    0.0016210602480257
  26     0.035408111666744
  27    0.0011222982773504
  28    0.0081087607998742
  29    0.0002823256101305
  30    -0.0024137593927588
  31    -0.0036426895394184
  32      0.03374479899978
  33      0.66558066125509
  34    -0.011360258404143
  35     0.024574254849191
  36       0.4697160772099
  37    -0.0082079668958327
  38    0.00050112545708325
  39    -0.00051441976734587
  40    -0.012151240917081
  41      4.2398622156e-05
  42    -0.0044207483303821
  43     0.041174505181808
  44     0.050721709795259
  45    -0.00023314984219815
  46    -0.0013197531331432
  47    0.0013710250675207
  48    -0.043124470779471
  49    -0.049117392666653
  50    -0.00010230296313646
  51    -0.0013111982408613
  52     -0.00101282960642
  53    -0.0026958483400783
  54    0.0026943096876982
  55    0.00087747236135412
  56    0.00035788002119025
  57    -5.7578063001395e-05
  58    -0.0010371731680896
  59    -0.0021456488070307
  60     0.007324140002826
  61    -0.0032377911222309
  62    0.00064513904854675
  63    -0.0038381475712997
  64    0.00037354081305781
  65    0.00053317274192002
  66    -0.0024386504284375
  67    -5.9858490576232e-05
  68    0.0003162229232123
  69    -0.00012244517944621
  70    0.00022418912311699
  71    -6.4118717753093e-05
  72    -0.0006054135870327
  73    -0.028994768927132
  74    -0.0021517153042817
  75    -0.0006324338928942
  76    -0.00015803109199098
 Sym= A
 Ene=               5
 Spin= Alpha
 Occup=    1.00000
   1    0.0015778119331731
   2     0.026685119825839
   3     0.075576121054806
   4     0.039466830097421
   5    -0.0037411881550397
   6    0.0067304014384133
   7     0.028956504052568
   8    -0.010229107446185
   9    -0.029599986250061
  10    -0.0025337162621888
  11    0.00054155862288034
  12    -0.00033340130974419
  13    2.5618581145207e-05
  14    0.0004445134582015
  15    0.0014823372811595
  16    0.0028402689610628
  17    -0.0049847064293172
  18     0.010244050505183
  19    -0.0006799241591851
  20    -0.0027357158539905
  21     0.035177326870728
  22    -0.00013104454903411
  23     0.014034831221209
  24    -0.017547105690792
  25     0.027799047560935
  26    -0.0022311422497969
  27     0.013390531091365
  28    -0.00027925528108485
  29    0.0012841789509981
  30    -0.0026228671508686
  31    -0.017092184800691
  32      0.63217430057152
  33    -0.035902419847967
  34     -0.20437664733851
  35      0.44754195418433
  36    -0.025429925861019
  37     -0.14113580757927
  38    0.0066522774523866
  39    -0.010551241857488
  40    0.00074274015372771
  41    -0.0038272885836686
  42    4.4928563956744e-05
  43    -0.024826912609135
  44    -0.025729262766175
  45    -0.0016006620857055
  46    0.00037805781777753
  47    -0.0011573038228961
  48    -0.019204300140604
  49    -0.019595153891244
  50    -0.001612059483023
  51    -0.00021792810039957
  52    -0.0011653383323159
  53    -0.016775408708076
  54    -0.034016431885075
  55    0.0024104740393445
  56    -0.00014496557126888
  57    -0.0012733001315262
  58    -0.00018683007498549
  59    0.0011688428370818
  60    0.0056104319680607
  61    0.00090078165863132
  62    -0.00067683364134981
  63    0.0034412081556981
  64    -0.003997050493554
  65    -0.0013353871429172
  66    0.0033211625572052
  67    -0.00027876372322507
  68    -0.00056689741414907
  69    -3.4715949152025e-05
  70    -0.00019919067562222
  71    -0.00044506536325858
  72     0.010711434780167
  73    -0.010222408046707
  74    -0.0013447698944684
  75    0.00091099942085884
  76    -0.00025863116123195
 Sym= A
 Ene=               6
 Spin= Alpha
 Occup=    1.00000
   1    -0.0014893793590719
   2    -0.0041965533036137
   3    0.0040662140940794
   4      0.01106628675876
   5    0.0034475391931465
   6    0.0023447887662364
   7     0.035487180452697
   8    -0.012924877974406
   9    -0.0042109942535156
  10     0.005760571008094
  11    0.0091479751569716
  12    0.0073931168792069
  13    -0.020144782419382
  14     0.026099924858744
  15    -0.0015626085470493
  16    -0.025881429479636
  17    -0.074924695477218
  18     0.039713965194231
  19    -0.0085572897111706
  20    0.00074156714937392
  21     0.029036751023036
  22      0.02401095576533
  23     0.019444923649882
  24    -0.00063250505740105
  25    0.00055550093312296
  26    0.0017134675379979
  27    -0.0019063068740055
  28    0.00027706349426819
  29    0.00017664618097421
  30    -0.0012438281482311
  31    -0.0056769208129267
  32    0.00092807408572603
  33    -0.0034148917783206
  34    -0.00041983844298873
  35    -0.0039932981553721
  36    -0.0034753855587823
  37    0.00023024349103957
  38    -0.00021581968489864
  39    -0.00061226693529094
  40    0.00025960324365997
  41    -9.1644926295204e-05
  42    -0.00038012386669492
  43     0.018189229101796
  44     0.034501353404875
  45    0.0023462003920503
  46     0.001228188267173
  47    0.00061723042476367
  48    -0.010821708189248
  49     0.009864692502097
  50    -0.0013273766030632
  51    0.00052083346211384
  52    -0.00077581607465542
  53     0.023344524990635
  54     0.025524433948819
  55    -0.0016476847432354
  56    0.0012384899892178
  57    -0.00010709434986956
  58    -0.0013247659954994
  59    0.0031491329233498
  60     0.017688082509995
  61      0.63213775529499
  62      0.17796776348546
  63       0.1065117385433
  64      0.44746622385968
  65       0.1226410432264
  66     0.074166415013965
  67    -0.0012226771725029
  68    -0.0035495107914577
  69    -0.0030892774942455
  70    0.0069682204380569
  71    -0.009951892229596
  72     0.017740557684557
  73     0.019032990634684
  74    -0.0016406794263254
  75    0.00095486747564212
  76    0.00070529949546791
 Sym= A
 Ene=               7
 Spin= Alpha
 Occup=    1.00000
   1    0.0001607609431908
   2    0.00058109149803654
   3    0.0034012010000088
   4    -0.0001296705606532
   5    -0.0037193204744889
   6     0.012198486853809
   7    0.0033009151796227
   8    -0.014752496853684
   9     0.036494472162232
  10     0.019117392180359
  11    -0.0083108884624452
  12     0.026674314349948
  13     0.012946277397205
  14    0.0011693514506973
  15    -0.00092732237173252
  16    0.00034352018524235
  17     0.015546687765689
  18    -0.002385144914505
  19    0.0047482080495213
  20    -0.0050528430364265
  21    0.0075235463287583
  22     0.018583702725618
  23    -0.019411201097288
  24    0.00060706605781405
  25     0.001143828486232
  26    0.00011740168211835
  27    -0.00016471303065538
  28    -0.00038460073274233
  29    -0.0010313851461679
  30    -0.0021933707253291
  31    0.0071429701386947
  32    0.0033531885806861
  33    -0.0037917658811886
  34    -0.00062735436849671
  35    -0.00020140884069901
  36    -0.002439815236378
  37    -0.00028542817937743
  38    -0.00022122061351999
  39    -4.346167927502e-05
  40    -5.8128151124814e-05
  41    0.00013642670876266
  42    -0.00031514855303819
  43    -0.0030810666547374
  44    0.0024084200248251
  45    -0.00087562417676492
  46    -0.00020817419799636
  47    0.00029977264027603
  48    -0.00064017008033674
  49    -0.028802976215784
  50    0.0021522917360378
  51    9.8902378966445e-05
  52    -0.0006553062646457
  53     0.038767024714956
  54     0.049631121992553
  55    0.00014620866395527
  56    0.0016822792689921
  57    -0.00087717341349171
  58    0.00029527543910943
  59    -0.0024679839481703
  60    -0.0037575844211753
  61    -0.036938074648621
  62     -0.23909192859954
  63      0.62083094684456
  64    -0.026829583129365
  65     -0.16883153559408
  66      0.43788689875966
  67    -0.0069781870504908
  68    0.0043575387828277
  69    -0.0090351249307272
  70    -0.0043136786581091
  71    -0.0009818060986199
  72    -0.040830526868157
  73    -0.048353394355991
  74    0.00020772749401511
  75    -0.00039821289676084
  76    -0.0016410120538554
 Sym= A
 Ene=               8
 Spin= Alpha
 Occup=    1.00000
   1    -0.0021878938106306
   2     -0.15451329196954
   3    0.0032642548236302
   4     0.096083889092358
   5     -0.26946939586228
   6    -0.097493327497738
   7     0.025107846948988
   8    -0.046553968682239
   9     -0.01829958189076
  10     0.020659240306544
  11    0.0092298878614454
  12    -0.029492870825903
  13     0.034870545150707
  14     0.027678402943208
  15    -0.00053322781181324
  16     0.012088048120634
  17    -0.0068160191040684
  18    -0.024325305122531
  19     0.003493711948059
  20    -0.0014723391778429
  21    -0.014071879978661
  22    -0.0015555289995858
  23    0.0037760893650207
  24    0.0014203099052144
  25    0.0037709091230626
  26    0.00027177884620421
  27    -0.0044732341293753
  28     0.010538074215655
  29    0.00032669427451455
  30    0.0012874811786038
  31    -0.00075978301520589
  32    -0.00087744448428975
  33    0.00083610420381559
  34    -0.0023400722916526
  35    0.0044975101624037
  36    0.00046604504003397
  37    -0.0015942719713149
  38    -7.6303549729036e-05
  39    0.00046882424216657
  40    -9.0121049180733e-05
  41    9.3873030971265e-05
  42    0.00027357886542913
  43    -0.020032930533735
  44    -0.018006689108004
  45    0.00030854621268935
  46    0.00085448895170831
  47    -0.00018165045308353
  48     0.010476426527721
  49      0.01728482407922
  50    -0.0007067560091773
  51    -0.00075697475467976
  52    -0.00044532011385196
  53    0.0093973468481609
  54     0.019850690247304
  55    0.0013827907268591
  56    -0.0087992963784325
  57    -0.0055618088565037
  58    0.0040492779937686
  59     -0.15153436199113
  60     -0.11844365762924
  61     -0.15411669770455
  62      0.45185792466566
  63      0.16393218512863
  64     -0.10195806676508
  65      0.29674301589831
  66      0.10767618053332
  67     0.007180863938297
  68    0.0037292767001671
  69    -0.010791667637709
  70     0.012844111237059
  71     0.010195847137527
  72     0.010515054080992
  73     0.020677448270233
  74    0.0012577480390002
  75    -0.010355112131186
  76    -0.001330994979733
 Sym= A
 Ene=               9
 Spin= Alpha
 Occup=    1.00000
   1    -0.0005830707061161
   2     0.012086433770333
   3    -0.0068519095505397
   4     0.023887691970766
   5    -0.0019245663000055
   6    0.00032304518160386
   7     0.013943172874217
   8    0.0043280077640175
   9    -0.00095647579190215
  10    0.0031576260405535
  11    -0.011178972500902
  12    -0.00035766928111165
  13    -0.0034189944601916
  14    3.5048706713363e-05
  15    -0.0022110643504193
  16     -0.15219621192963
  17    0.0045945877496351
  18    -0.094463977417754
  19    0.00058995926703634
  20     -0.28844404070628
  21     -0.02443487127154
  22    -0.0011783002798686
  23    -0.050806372493637
  24    -0.049855983610269
  25    -0.029093626202016
  26    0.00013084569098931
  27    -0.0059102438430132
  28    0.00075443295460385
  29    0.0040310185124248
  30     -0.15164598700583
  31     -0.11847241885398
  32      0.15468433915216
  33    -0.00049987128432155
  34      0.48064100602783
  35      0.10220592480996
  36    -0.00031700696940581
  37      0.31572444837515
  38    -0.018120292851808
  39    -0.010881416254167
  40    -0.00014156371920363
  41    -0.0018029379977921
  42    -1.8988054652304e-05
  43     0.011711248810096
  44     0.020432351871132
  45    -0.001442424662329
  46    -0.0019906749585457
  47    -0.010100229414357
  48     0.012770432341681
  49     0.021011823877906
  50    -0.0013023421596775
  51    0.0020522075204303
  52    -0.010115818982215
  53    -0.018005742107701
  54    -0.017205940598824
  55    -0.00024353232887562
  56    -0.00042709557659932
  57    0.00086035150244006
  58    0.0003265973638213
  59    0.0012785098016789
  60    -0.00076252938244523
  61    0.00089185473316324
  62    -0.0025474617722013
  63    0.0001784273824385
  64    -0.0044500294930719
  65    -0.0017522685403617
  66    0.00017494939567187
  67    -7.722442243926e-05
  68    -0.0004240515705217
  69    -5.4066723384145e-05
  70    8.8577801865603e-05
  71    -0.00033640689957285
  72    0.0089593054067709
  73     0.016834964917466
  74    0.00062402755820958
  75    -0.00023109312091564
  76    -0.00084242531509663
 Sym= A
 Ene=              10
 Spin= Alpha
 Occup=    1.00000
   1    -0.0067963843168155
   2    -0.036641792225572
   3    -0.031217570302958
   4     0.017136125583841
   5    -0.048202712906611
   6    -0.017317537763696
   7    -0.0028412120381885
   8    -0.0036458133134985
   9    -0.0022011780144657
  10    -0.0005092738280518
  11    -0.00097299988421384
  12    0.0013834073498377
  13    -0.0012996613642973
  14    -0.0014632895216052
  15    -0.0011031697399423
  16     -0.00148772500589
  17    0.0095301430711428
  18    -0.0031312404897364
  19    -0.0020433584718597
  20    -0.00089278499737311
  21    -0.015928515798542
  22    -0.0023810003843934
  23    0.0052160644115571
  24    0.0005634747616192
  25    0.0013569738268458
  26    -0.00032842827082327
  27    0.00020453653130785
  28    0.0029766839778728
  29    0.00041284020342048
  30    0.00085865445304041
  31    -0.0030177081915934
  32    0.0001541387945378
  33    -0.00028918733568716
  34    -0.0010568290703289
  35     0.002396022911198
  36    0.00044576246946861
  37    -0.00022145022640577
  38    -5.6991074035852e-05
  39    -7.4932552652056e-06
  40    -8.6385124869749e-06
  41    -3.4936772848014e-05
  42    6.0332839927648e-05
  43    -0.0034539605456354
  44    -0.001948031429785
  45    -0.00042222499993827
  46    0.00081403634529025
  47    0.00010236625129991
  48    0.00076843997606228
  49     0.011644857258765
  50    2.8506020253488e-05
  51    -0.0003874247956602
  52    0.00015833985031448
  53    0.00064921730964051
  54     0.012413808627171
  55    0.0013491903087767
  56    -0.0023442241241102
  57    5.3912769010485e-05
  58    0.0062763700340834
  59       0.4692471848328
  60      0.55166013635567
  61    -0.080730827629593
  62      0.21226036879166
  63     0.081747829164199
  64     -0.05666916338169
  65      0.14944762366203
  66     0.057096583917844
  67    0.0015592137369698
  68    0.00087592352418755
  69    -0.0025907841024586
  70    0.0029737178379754
  71    0.0024039350963442
  72    0.0004008485020459
  73     0.011886748414302
  74    0.0011921011126702
  75    -0.0017916568044712
  76    -0.0014979757884521
 Sym= A
 Ene=              11
 Spin= Alpha
 Occup=    1.00000
   1    -0.0011066059529467
   2    -0.001561170144761
   3    0.0094548052932832
   4    0.0031276194308092