[Molden Format]
made by pyscf v[2.0.1]
[Atoms] (AU)
C   1   6     0.00000000000000     0.00000000000000     0.00000000000000
C   2   6     2.85207482267819     0.00000000000000     0.00000000000000
F   3   9     3.65415199667903     0.00000000000000     2.45977207315200
H   4   1     3.58561868306314    -1.67891019462705    -0.93677358840720
H   5   1     3.58561868306314     1.67891019462705    -0.93677358840720
H   6   1    -0.73354386038494    -1.89805495782401     0.30605812297611
F   7   9    -0.80207717400084     0.84129159700793    -2.31142966595619
H   8   1    -0.73354386038494     1.25726408388254     1.45450033377066
[GTO]
1 0
 s    8 1.00
                  6665  0.00069158396281299
                  1000  0.0053257961529341
                   228   0.027060721042034
                 64.71    0.10165684614077
                 21.06     0.2745748236174
                 7.495    0.44829431892377
                 2.797    0.28490261071525
                0.5215   0.015194859206082
 s    8 1.00
                  6665  -0.00029326965268655
                  1000  -0.0023180354739745
                   228  -0.011499786038565
                 64.71  -0.046826727009787
                 21.06   -0.12846616875047
                 7.495   -0.30126627246289
                 2.797   -0.25563070233011
                0.5215      1.093793361012
 s    1 1.00
                0.1596                   1
 p    3 1.00
                 9.439   0.056979251590039
                 2.002    0.31320721150073
                0.5456    0.76037674173753
 p    1 1.00
                0.1517                   1
 d    1 1.00
                  0.55                   1

2 0
 s    8 1.00
                  6665  0.00069158396281299
                  1000  0.0053257961529341
                   228   0.027060721042034
                 64.71    0.10165684614077
                 21.06     0.2745748236174
                 7.495    0.44829431892377
                 2.797    0.28490261071525
                0.5215   0.015194859206082
 s    8 1.00
                  6665  -0.00029326965268655
                  1000  -0.0023180354739745
                   228  -0.011499786038565
                 64.71  -0.046826727009787
                 21.06   -0.12846616875047
                 7.495   -0.30126627246289
                 2.797   -0.25563070233011
                0.5215      1.093793361012
 s    1 1.00
                0.1596                   1
 p    3 1.00
                 9.439   0.056979251590039
                 2.002    0.31320721150073
                0.5456    0.76037674173753
 p    1 1.00
                0.1517                   1
 d    1 1.00
                  0.55                   1

3 0
 s    8 1.00
                 14710  0.00072067370873197
                  2207  0.0055504869689163
                 502.8   0.028254207662589
                 142.6    0.10639582836653
                 46.47    0.28668420124307
                  16.7    0.44843796582416
                 6.356    0.26464118141135
                 1.316   0.015326060993048
 s    8 1.00
                 14710  -0.00032119389049893
                  2207  -0.0025461915683188
                 502.8  -0.012643359507821
                 142.6   -0.05195749170489
                 46.47   -0.14344713812646
                  16.7   -0.33243762329603
                 6.356   -0.21865906750347
                 1.316     1.0955904138622
 s    1 1.00
                0.3897                   1
 p    3 1.00
                 22.67   0.064834021493887
                 4.977    0.34053535983101
                 1.347    0.73464640679382
 p    1 1.00
                0.3471                   1
 d    1 1.00
                  1.64                   1

4 0
 s    3 1.00
                 13.01   0.033498726389998
                 1.962    0.23480080117413
                0.4446     0.8136829578829
 s    1 1.00
                 0.122                   1
 p    1 1.00
                 0.727                   1

5 0
 s    3 1.00
                 13.01   0.033498726389998
                 1.962    0.23480080117413
                0.4446     0.8136829578829
 s    1 1.00
                 0.122                   1
 p    1 1.00
                 0.727                   1

6 0
 s    3 1.00
                 13.01   0.033498726389998
                 1.962    0.23480080117413
                0.4446     0.8136829578829
 s    1 1.00
                 0.122                   1
 p    1 1.00
                 0.727                   1

7 0
 s    8 1.00
                 14710  0.00072067370873197
                  2207  0.0055504869689163
                 502.8   0.028254207662589
                 142.6    0.10639582836653
                 46.47    0.28668420124307
                  16.7    0.44843796582416
                 6.356    0.26464118141135
                 1.316   0.015326060993048
 s    8 1.00
                 14710  -0.00032119389049893
                  2207  -0.0025461915683188
                 502.8  -0.012643359507821
                 142.6   -0.05195749170489
                 46.47   -0.14344713812646
                  16.7   -0.33243762329603
                 6.356   -0.21865906750347
                 1.316     1.0955904138622
 s    1 1.00
                0.3897                   1
 p    3 1.00
                 22.67   0.064834021493887
                 4.977    0.34053535983101
                 1.347    0.73464640679382
 p    1 1.00
                0.3471                   1
 d    1 1.00
                  1.64                   1

8 0
 s    3 1.00
                 13.01   0.033498726389998
                 1.962    0.23480080117413
                0.4446     0.8136829578829
 s    1 1.00
                 0.122                   1
 p    1 1.00
                 0.727                   1

[5d]
[7f]
[9g]

[MO]
 Sym= A
 Ene=               0
 Spin= Alpha
 Occup=    1.00000
   1       1.0022172164421
   2    -0.00083218040810488
   3    -0.011541117625686
   4    0.00053996935091373
   5    0.00074484264980306
   6    -0.0022799380513031
   7    -0.00081823873251281
   8    0.00042448486663016
   9    -0.0011766011499822
  10    9.5513532915254e-05
  11    1.8159001238056e-05
  12    -3.8475316978123e-05
  13    -0.00011926903407167
  14    1.5078572163247e-05
  15    -0.00010352875712934
  16    -0.0006590518283758
  17    0.0022517808891068
  18    0.0011247988410702
  19    -7.1475755586192e-06
  20    -0.00013275496620835
  21    -0.00090072576006859
  22    -0.00013580411955368
  23    4.4679814585986e-05
  24    0.00021010384144962
  25    -2.1046082707766e-05
  26    -1.1958324113619e-05
  27    -0.00029203565560199
  28    1.5304137554794e-05
  29    -3.1648488948027e-05
  30    4.1971654937225e-05
  31    0.00018653607856488
  32    -0.00027224651374906
  33    1.2831977585319e-05
  34    -7.0311581509242e-05
  35    -0.00042710294557645
  36    -5.6065256682872e-06
  37    -4.4714531056904e-05
  38    -1.7842576223852e-07
  39    -5.4610728466767e-06
  40    -3.8773361650138e-08
  41    2.2241484221268e-05
  42    1.6493614387536e-06
  43    5.3114136207779e-05
  44    0.00018903504173833
  45    -3.9595908544428e-05
  46    2.9625844718122e-05
  47    6.5405857729877e-06
  48    -2.2156147496941e-05
  49    0.00032546457931758
  50    -7.3955056226546e-05
  51    -1.6155119437299e-05
  52    1.0271977000449e-05
  53    -0.0030587483888323
  54    0.00079813288805494
  55    -0.00010996901227208
  56    -0.00061381242232924
  57    0.0001440735474252
  58    0.00015161604672996
  59    4.0015857157661e-05
  60    -0.00029612768572717
  61    -0.00037044223507495
  62    0.00032168281967207
  63    -0.00086410613179959
  64    -0.00047982343678618
  65    0.00049913759852648
  66    -0.001373668992799
  67    -0.00025394986498477
  68    -0.00015323041178943
  69    0.0001818984699007
  70    7.8835860066914e-06
  71    5.4944557989399e-05
  72    -0.0030175169191954
  73    0.00084357880343889
  74    -8.3741320667935e-05
  75    0.00035275954661753
  76    0.00047861416568008
 Sym= A
 Ene=               1
 Spin= Alpha
 Occup=    1.00000
   1    -0.00010274039768339
   2    -0.00065943676855774
   3    0.0022538771570433
   4    -0.0011198244821676
   5    -4.9125299696669e-05
   6    0.00012234489620259
   7    0.00090355457550009
   8    -0.00011120451877604
   9    -8.9777803911366e-05
  10    0.00021072365293601
  11    -2.3662228345497e-05
  12    -1.4127428577063e-05
  13    -0.00029345601186151
  14    -7.3567432976936e-06
  15       1.0022173027988
  16    -0.00088547856773511
  17    -0.011571646181599
  18    -0.00057051935301849
  19    -8.0329230618464e-05
  20    0.0024318892681168
  21    0.00080614906499624
  22    -3.7616692341185e-06
  23    0.0012653860505729
  24    0.00011379153994009
  25    1.324136856574e-05
  26    1.4651611455404e-05
  27    -0.00010720968975124
  28    -2.0495052566444e-05
  29    0.00015206890061287
  30    4.2963197512247e-05
  31    -0.00029202482788056
  32    0.00037150676842513
  33    6.7632077594925e-06
  34    0.00091920975695321
  35    0.00048250719178015
  36    -7.4634954820721e-07
  37    0.0014578616854729
  38    -0.00031226489429535
  39    -0.00016261670741495
  40    -5.0121236275737e-07
  41    -2.5135862198008e-05
  42    7.7930060538439e-07
  43    -0.0031075466467284
  44    0.00078732060351041
  45    0.00011115586055873
  46    -0.00053225248724767
  47    -0.00034687212542694
  48    -0.0030669809883719
  49    0.00083225947508207
  50    8.4901474040602e-05
  51    0.00049994581745318
  52    -0.00033072736247361
  53    4.820818806069e-05
  54    0.00018599696679409
  55    3.9644359864248e-05
  56    2.967993919134e-05
  57    4.0378064765258e-06
  58    -3.1608419431645e-05
  59    4.3177276657266e-05
  60    0.00018819787819126
  61    0.00027378254800882
  62    -1.2527737303273e-05
  63    7.1495877052533e-05
  64    0.00042840714291838
  65    -2.1011556621338e-05
  66    4.047597920364e-05
  67    -2.4008990338898e-06
  68    -5.5886975494654e-06
  69    -6.9541495499671e-06
  70    2.0976405945813e-05
  71    2.8224932630176e-07
  72    -2.4031463346091e-05
  73    0.00032234696323396
  74    7.4166393589904e-05
  75    -1.1437846326651e-05
  76    -1.5120425192532e-05
 Sym= A
 Ene=               2
 Spin= Alpha
 Occup=    1.00000
   1    -5.3427361188624e-05
   2    4.2982667699179e-05
   3    0.0033138371260743
   4    -0.00022648118076153
   5    0.00017763857239982
   6    -0.00049153018542015
   7    0.00017392534122349
   8    0.00048207558656119
   9    -0.0012079397147397
  10    -1.2028849999348e-05
  11    7.2785742772723e-06
  12    1.6568981725776e-08
  13    7.7570973416946e-06
  14    8.0307850780432e-06
  15    3.3707570765191e-05
  16    3.819346100717e-05
  17    -0.0010683782813199
  18    0.00010918116190595
  19    3.1558911400088e-05
  20    -2.1497323356728e-05
  21    0.00068814773684384
  22    -0.00017318920447645
  23    0.00014069396061813
  24    6.6058131803685e-05
  25    -1.2196331725954e-05
  26    -5.7066869152895e-05
  27    -5.2251221347316e-05
  28    1.7958007866314e-05
  29    -2.6268033394103e-05
  30    -4.4385855737837e-05
  31    0.0001320905591503
  32    2.1189100790376e-05
  33    -4.6229745809067e-06
  34    -8.4235082407886e-06
  35    -0.00016052745500471
  36    2.5574194315933e-05
  37    -1.6212320218741e-05
  38    -3.6477883209821e-06
  39    -1.6950874156568e-06
  40    -9.1290593062797e-06
  41    2.9883495362664e-07
  42    -1.5827655390162e-06
  43    6.6455266715898e-05
  44    -0.00017016120823391
  45    2.1297327544693e-05
  46    3.5922211352532e-06
  47    2.5597770075529e-06
  48    3.2862128279714e-05
  49    -5.5808611501822e-05
  50    4.6723758634675e-05
  51    1.9535886803592e-05
  52    1.5642244548414e-05
  53    -0.00026844429463089
  54    -0.00015179399276759
  55    -4.0456952461363e-06
  56    -7.3851373510348e-05
  57    0.0001464790131338
  58        1.000970441775
  59    -0.0039372145704263
  60    -0.010648848188779
  61    0.00095681382975183
  62    -0.00087603937477443
  63    0.0025710921727697
  64    -1.1130422570401e-05
  65    6.7274997768478e-05
  66    -6.4925694686362e-05
  67    -0.0001259203014197
  68    -8.2536559408815e-05
  69    9.1344386484395e-05
  70    8.2715251423672e-06
  71    3.1639091011993e-05
  72    -0.00026869474833913
  73    -0.00020968683892948
  74    -4.6166720837486e-06
  75    -3.9952165594341e-05
  76    0.00016085771159117
 Sym= A
 Ene=               3
 Spin= Alpha
 Occup=    1.00000
   1    3.3681274996159e-05
   2    3.8990394344602e-05
   3    -0.0010678340022457
   4    -0.00010994466850408
   5    2.2718789329666e-05
   6    3.1800327119895e-05
   7    -0.00068839521299458
   8    -0.00011451043912112
   9    -0.00019116815009197
  10    9.1493768161666e-05
  11    -1.769772688694e-05
  12    2.3804970968109e-05
  13    -3.7556196979053e-05
  14    -1.2726996710835e-05
  15    -5.3469544030514e-05
  16    4.4280024009766e-05
  17    0.0033145475040109
  18    0.00022765244592702
  19    -1.3846700663183e-06
  20    0.00052105885190946
  21    -0.00017332007934855
  22    3.9850482828814e-05
  23    0.0012994502114104
  24    -1.0844622832466e-05
  25    4.0674335754497e-06
  26    4.2333475275199e-06
  27    8.4665339501501e-06
  28    -1.0066807612042e-05
  29       1.0009704605212
  30    -0.0039353935800165
  31    -0.010646716689645
  32    -0.00095483572397728
  33    5.6596422350994e-05
  34    -0.0027146478145487
  35    1.2446854463006e-05
  36    4.1329071875273e-05
  37    8.4768903576558e-05
  38    -0.00015550158263831
  39    -8.8435747872041e-05
  40    -2.5407594464009e-06
  41    -8.832240412706e-06
  42    -1.5056783395537e-06
  43    -0.00026663030496063
  44    -0.00015118604972025
  45    3.9968721349712e-06
  46    -1.9139783199773e-05
  47    -0.00016286795446092
  48    -0.00026730569437746
  49    -0.00020939817685256
  50    4.5864729622527e-06
  51    1.7317597710239e-05
  52    -0.00016479726409258
  53    6.6857943044468e-05
  54    -0.00017014544886966
  55    -2.1306241812469e-05
  56    4.3176521786291e-06
  57    -1.1586518955359e-06
  58    -2.6273050084344e-05
  59    -4.449157017468e-05
  60    0.00013191140012338
  61    -2.1239678994867e-05
  62    -7.2050930997652e-06
  63    6.1489702646036e-06
  64    0.00016052251463315
  65    1.8479701008679e-05
  66    2.3813396314742e-05
  67    2.0596019788796e-06
  68    -1.0584416878599e-06
  69    8.9296612653577e-06
  70    3.5846130725611e-06
  71    2.0715725783554e-06
  72    3.4321121185414e-05
  73    -5.521868265898e-05
  74    -4.6697266178828e-05
  75    2.3623703160261e-05
  76    -8.0987149034628e-06
 Sym= A
 Ene=               4
 Spin= Alpha
 Occup=    1.00000
   1    0.0013124178473635
   2     0.019005682162628
   3     0.047543132128227
   4      0.02342053641564
   5    -0.0015712648294945
   6    -0.00070562575635022
   7     0.020968040981264
   8    -0.014398999434975
   9    -0.028224682259075
  10    -0.0020556783510744
  11    0.00043743230204739
  12    0.00091425182283009
  13    0.00013598197901957
  14    -0.00072026641633644
  15    0.0016608818231416
  16    0.0027605037189146
  17    -0.011154512315361
  18     0.006618494134068
  19    0.0064180426533474
  20    -0.00081202773689299
  21       0.0248490566103
  22     0.028745739604084
  23     0.011118099501338
  24    -0.010694860998197
  25      0.01743620252801
  26     0.027110415724085
  27     0.008162112717809
  28    0.0061335587266356
  29    0.0012302175443572
  30    0.0052766900577485
  31      -0.0046019141953
  32      0.40202942707001
  33      0.51389196093576
  34     -0.13146110463133
  35      0.28497257145695
  36      0.36321173952878
  37    -0.090846577231733
  38    0.0044286544863852
  39    -0.0065697532182709
  40    -0.0092306995100386
  41    -0.0025472237680394
  42    -0.0036924188392818
  43     0.019270403071685
  44     0.025541003733319
  45    -0.0012172021146395
  46    -0.00084793230799656
  47    0.0002659023442869
  48    -0.046757297612535
  49    -0.053954576662605
  50    -0.00092094482366444
  51    -0.0009488785932768
  52    -0.0020615733793947
  53    0.0024456838819739
  54    -0.021626616437239
  55    0.00052347125153486
  56    -0.00041520302010077
  57    0.00097992539592276
  58    0.0014594016739162
  59    0.0004688788968593
  60     -0.01652042964915
  61    -0.0033801745239774
  62    0.0034362524797205
  63    -0.0051382599953346
  64    -0.0053219316024022
  65    0.0064493653518929
  66    -0.006982507451968
  67    -0.00011701347423229
  68    0.00033508160606922
  69    0.00010366802851922
  70    0.00011592409232777
  71    -0.00024494209061271
  72    0.0080516117708038
  73     0.011598724919118
  74    0.00036755740928172
  75    -0.00039717580780089
  76    -0.00085992782762376
 Sym= A
 Ene=               5
 Spin= Alpha
 Occup=    1.00000
   1    0.00071921069567852
   2     0.022835317883449
   3     0.066709842627557
   4     0.027656029475203
   5    0.0074483146189236
   6    0.0033726127553173
   7     0.015213546935183
   8     0.029165204173705
   9    -0.008896738983196
  10    -0.0015096978967361
  11    0.00026402969403628
  12    0.00036257119937965
  13    -0.00020983666301275
  14    0.00078130572703377
  15    0.0015174544640301
  16    0.0030863551230549
  17    -0.0017689616850083
  18    0.0075504795052508
  19    -0.0052375563873438
  20    -0.0012946512843317
  21      0.02701131776586
  22    -0.027303414620058
  23     0.010218243332395
  24     -0.01338775543854
  25     0.021585453305462
  26    -0.021850464383706
  27     0.010055441772528
  28    -0.0048905168239015
  29    0.0013541275685667
  30    -0.0046310446629116
  31     -0.01758778897699
  32      0.48744131768098
  33     -0.42436495409585
  34     -0.15965042452479
  35      0.34564366683346
  36      -0.2988802130706
  37     -0.11005058238926
  38    0.0052137036913623
  39    -0.0079416956091877
  40     0.007637702140587
  41    -0.0031784872968892
  42    0.0028859091658505
  43    -0.043601345970233
  44    -0.049744819879062
  45    -0.0012555613322193
  46    0.0010234450823363
  47    -0.0018807061838232
  48     0.010166442157894
  49     0.012826494633543
  50    -0.0011822825768991
  51    0.00073697648000994
  52    2.3916343126347e-05
  53    0.00039504746100474
  54    0.0062850779164167
  55    0.0014134315673385
  56    5.5054591422722e-05
  57    0.0011662105628905
  58    0.00097108939194158
  59    -0.0016184734650409
  60    -0.018003025217034
  61    -0.0061820825434519
  62    0.0002123250329846
  63    -0.0072978146386349
  64    -0.0046444590956392
  65    0.00033169681499811
  66    -0.010690515441278
  67    -0.00019475288156055
  68    0.00053196754529798
  69    0.00015829008200283
  70    0.00033774496299241
  71    -8.2973998044844e-05
  72    0.0071152978545195
  73    -0.035068195113995
  74    -0.0034794378105705
  75    -8.6821366802464e-05
  76    -0.0006280696583993
 Sym= A
 Ene=               6
 Spin= Alpha
 Occup=    1.00000
   1    -0.0015322854273694
   2    -0.004152451769647
   3    0.0012127299938336
   4    0.0083143815907353
   5     0.007508889252021
   6    0.00025441476392741
   7     0.027509952716276
   8     0.022682411400662
   9     0.018837932745491
  10    0.00021194235099801
  11    -0.022057269547555
  12    -0.020793132117881
  13    -0.017751945919156
  14    0.0027954996627084
  15    -0.00071279352193819
  16    -0.022680411718556
  17    -0.066855013291586
  18     0.027827945323271
  19    -0.0082030379891129
  20    0.00047218424759682
  21     0.015392341833054
  22    -0.024126170312002
  23    -0.018573435601488
  24    0.0014573902202167
  25    9.2633026327272e-06
  26    -0.00061021352142109
  27    0.00013684893656554
  28    0.00070749659156137
  29    -0.00098730825982206
  30    0.0015947642534138
  31     0.018116917006169
  32    -0.0062141662084071
  33    0.0022717595418684
  34    -0.0069508079872643
  35    -0.0047032613300361
  36    0.0032924043414215
  37     -0.01019895753371
  38    0.00028589206943372
  39    -0.0005296626454469
  40    0.00012440057018435
  41    -0.0002871156597318
  42    0.00010091271483671
  43    -5.2638399300851e-05
  44    -0.0058547258273793
  45    0.0013997868464536
  46    -0.0004388136513135
  47    0.0010930095747174
  48    -0.0071791576083038
  49     0.034680404474603
  50    -0.0034765614031242
  51    0.00028036210489658
  52    -0.00056095902033243
  53     0.040853810024614
  54     0.048663649964111
  55    -0.0013508731581388
  56    -0.00048720921346618
  57    -0.0020903848014152
  58    -0.0013575442723231
  59    0.0048779641972143
  60     0.017927825082889
  61      0.49101043703804
  62      0.44924029891222
  63    -0.007154704837701
  64      0.34811526487375
  65      0.31544739132691
  66    -0.0028062981206729
  67    -0.00043706014794404
  68    0.0085068397002539
  69    0.0077054542631262
  70    0.0059889838078188
  71    -5.363699198534e-05
  72    -0.0094450103297688
  73    -0.012054984153555
  74    -0.0011584493179484
  75    -0.00062798075600951
  76    -0.00025022066376704
 Sym= A
 Ene=               7
 Spin= Alpha
 Occup=    1.00000
   1    0.0016435239104446
   2    0.0035633153830344
   3    -0.010565859181835
   4    -0.0071798618254521
   5     0.007923881844394
   6    0.0046124223343389
   7     -0.02486214218847
   8     0.031781108781713
   9    0.00016542646949386
  10    -0.024711052192994
  11     0.014022388250458
  12    -0.017478247017002
  13    -0.00010718281944261
  14    -0.011777092406121
  15    0.0012929272531749
  16     0.018890869470357
  17     0.046940504288214
  18    -0.022899779191567
  19    -0.0017744828717177
  20    6.956394940811e-05
  21    -0.020668491468038
  22    -0.023306705606884
  23     0.021352141220969
  24    -0.0022231506270339
  25    0.00058233605394536
  26    0.00041979689415449
  27    5.0956102194427e-05
  28    0.00041861712983491
  29    0.0014452303474823
  30    0.00042128415246547
  31    -0.016445913843763
  32     0.003390787161192
  33    0.0014690787661067
  34    0.0060068007018134
  35    0.0053208531712672
  36    0.0036666734907268
  37     0.008716445023328
  38    -0.00016131180559874
  39    0.00038985092902298
  40    -4.8893543106072e-05
  41    8.6548598720282e-05
  42    0.00011318853022132
  43    0.0027695486150056
  44    -0.021327837631306
  45    -0.00051539524427746
  46    -5.4422901379731e-05
  47    -0.0010482896472769
  48    0.0080619592643545
  49      0.01175894646728
  50    -0.00038560054540726
  51    -0.00068799963325234
  52    0.00067372965583388
  53     0.018710938553014
  54     0.025469776313757
  55    0.0011504243167938
  56    -0.00070765417070421
  57    -0.00050744840036518
  58    0.0012139037201407
  59     0.005069510325152
  60    -0.0047111213028988
  61     -0.39777891180506
  62       0.4418354951683
  63      0.29888057671022
  64     -0.28191026497922
  65      0.31283109529638
  66       0.2092484268128
  67    0.0090689268665362
  68    -0.0048440031593624
  69    0.0055190286964767
  70    0.00017873253458896
  71    0.0057276539629083
  72    -0.044055044500515
  73    -0.053122522804038
  74    0.0010028228160586
  75    -0.0017175822457718
  76    0.0014682829393601
 Sym= A
 Ene=               8
 Spin= Alpha
 Occup=    1.00000
   1    0.0018589327609226
   2      0.15253681555591
   3    -0.012182004226791
   4    -0.095826864886257
   5     0.096766799681518
   6      -0.2686845007901
   7    -0.026839834322759
   8     0.012487552961993
   9    -0.042845639277777
  10     0.041353282200095
  11      0.02631203361759
  12    -0.029068365322057
  13    0.00030954727672136
  14    -0.010157373112494
  15    -0.00024885071737779
  16    -0.018283382642193
  17     0.011283731296511
  18     0.021128256091636
  19    -0.0024815495727288
  20    -0.0089512244506871
  21    0.0048716370226716
  22    0.0071930214635153
  23    -0.0075549380857782
  24    -0.0016811761248411
  25     0.010021605751631
  26    0.0020322103054367
  27    0.0029110526882978
  28    -0.0040521923265283
  29    0.00039039280190131
  30    0.0066265587937616
  31      0.01180469239138
  32    -0.012834564829646
  33    0.00022375163339148
  34    -0.010370372734253
  35    -0.012381257180351
  36    -0.0012537066034833
  37    -0.0060071256820663
  38    0.00017543157291974
  39    -0.00021189749985495
  40    0.00017907991692646
  41    -0.00025663277164118
  42    5.1971605690965e-05
  43    -0.00011544852321156
  44     0.007845468420504
  45    0.0010869250434269
  46    -0.00050369042662259
  47    -0.00071045763740114
  48    -0.0088994677268485
  49    -0.018466668279581
  50    0.00082639841672519
  51    -0.00040153739939354
  52    -0.0012578424500258
  53    -0.010132426310451
  54     -0.02187245314353
  55    -0.0014257946552753
  56    0.0057298892361958
  57    -0.0088554720833053
  58    -0.0043918006982838
  59      0.15164434985081
  60      0.12254223440892
  61      0.15610172191911
  62     -0.16606670806155
  63      0.45089718471526
  64      0.10354580920018
  65     -0.10937789805829
  66      0.29698990052042
  67     0.014547345778187
  68     0.010350208492157
  69    -0.010697854070962
  70    -6.1787437377634e-05
  71    -0.003871091777139
  72    -0.0094394950128497
  73    -0.016327024476017
  74    -0.0011827991260156
  75    0.0015668836203522
  76    -0.010212861129949
 Sym= A
 Ene=               9
 Spin= Alpha
 Occup=    1.00000
   1    0.00021419547931912
   2     0.017457301055034
   3    -0.011852864626123
   4     0.021318487815572
   5    0.0047915682162473
   6    -0.0083584546698511
   7    0.0049190749357228
   8    -0.0043859839117854
   9    -0.0098278227109893
  10    0.0027597689860962
  11    -0.010837647739014
  12    0.0015123629420325
  13    -0.0021919132504617
  14    -0.00036330347934554
  15    -0.0018561940690756
  16     -0.15010209722976
  17     0.013629843776792
  18    -0.094392633096829
  19    0.00085108132791722
  20     -0.28731356889856
  21    -0.026269438937246
  22    0.0028513708512549
  23    -0.045203219206829
  24    -0.050327006135196
  25    -0.028214114108019
  26    0.00084913699337547
  27    -0.0055734434827955
  28    -0.00051807193268171
  29    0.0043738143750619
  30     -0.15181229962774
  31     -0.12275360855315
  32      0.15657323132222
  33     0.001828514111449
  34      0.48057488132723
  35      0.10377645918192
  36    0.0012123397295556
  37      0.31662127891708
  38    -0.017917460297834
  39    -0.011068793472858
  40    -0.00011539332678802
  41    -0.0019197816741715
  42    -9.639288018233e-05
  43     0.012451763248336
  44       0.0223101670699
  45    -0.001486110447031
  46    -0.0021288610306657
  47    -0.010209864743621
  48     0.011658436420143
  49     0.016833856857611
  50    -0.0012386591593236
  51     0.001805032562385
  52    -0.010064887202971
  53    7.8982876023728e-05
  54    -0.0076916196216841
  55    0.0010851614019345
  56    0.00068136146172249
  57    -0.00051171580933531
  58    -0.00038458669633779
  59     -0.00661623813648
  60    -0.011815109088754
  61    -0.012912770700888
  62    0.0033741853470495
  63    -0.0097498062531617
  64    -0.012475577716764
  65    0.0032983297614911
  66    -0.0051141331480774
  67    -8.4266964105408e-05
  68    0.00021439779190239
  69    0.0001467087952126
  70    0.00031731609617663
  71    -2.5379045484298e-05
  72    0.0077158203345529
  73      0.01825475397641
  74    0.00077452363340848
  75    0.00087069019147119
  76    -0.00097433474081549
 Sym= A
 Ene=              10
 Spin= Alpha
 Occup=    1.00000
   1    -0.0068587598412507
   2    -0.036441011200261
   3    -0.025629711740962
   4     0.017365990021078
   5    -0.017394044857913
   6     0.048147353339067
   7    -0.0010226625719079
   8    0.00057844168807017
   9    0.0021374520388238
  10    0.0014705499663717
  11    0.0017654250044479
  12    -0.00078586638969022
  13    0.00020568184575037
  14    -0.00026231479139369
  15    -0.00043913911735479
  16    0.00052364860733133
  17    0.0049011410144863
  18    -0.0025400634999114
  19    -0.0010375510496347
  20    0.0043029104941666
  21    -0.011247880251003
  22    -0.0070687195617829
  23    0.0036078143479718
  24    -0.00040254105632547
  25    -0.002822936604361
  26    0.00016813136712916
  27    -0.00012300785465463
  28    0.00092147152042753
  29    -0.00033331460188183
  30    -0.0020942447814944
  31    -0.0022252857523785
  32    0.0032247268198093
  33    0.00019421220929069
  34    0.0021737790019335
  35    0.0028908665915009
  36    0.00075808143258891
  37    0.0010054242378362
  38    -2.7605948576423e-06
  39    0.00014127277496968
  40    -5.4343874618285e-06
  41    0.00013861060220616
  42    1.8511790317581e-05
  43    -0.0013855027817285
  44    -0.0018893562617072
  45    0.00042516660571684
  46    2.031303792399e-06
  47    0.00012055254569334
  48    0.00058412548812521
  49      0.01377873790211
  50    -0.00031232221243066
  51    -0.00040915342375197
  52    0.0002271675706668
  53    -7.9754496632176e-06
  54     0.012163018317304
  55    0.0012440724348883
  56    -4.0259628792279e-05
  57    0.0024207810885401
  58    0.0062398434492165
  59      0.46895008698702
  60      0.55022858264623
  61    -0.080246677252656
  62     0.070064745248325
  63     -0.21759353277649
  64    -0.055711583090142
  65     0.049139101823765
  66      -0.1537380523469
  67    -0.0034845330122265
  68    -0.0024966733445841
  69    0.0023662187563147
  70    2.6270087927403e-05
  71    0.00084712181276561
  72    0.00088576388393247
  73     0.011662739590026
  74    0.0013020887965738
  75    -0.0016010166313768
  76    0.0017630616308794
 Sym= A
 Ene=              11
 Spin= Alpha
 Occup=    1.00000
   1    -0.00044064045138725
   2    0.00035384075569405
   3    0.0047738566348722
   4    0.0026217078339298
   5    0.00038674627943348