[Molden Format]
made by pyscf v[2.0.1]
[Atoms] (AU)
C   1   6     0.00000000000000     0.88125373745639     1.12114894133204
C   2   6     0.00000000000000    -0.88125373745639    -1.12114894133204
H   3   1     1.67890143805590     2.07106861498177     1.11893447692235
H   4   1    -1.67890143805590     2.07106861498177     1.11893447692235
H   5   1     1.67890143805590    -2.07106861498177    -1.11893447692235
H   6   1    -1.67890143805590    -2.07106861498177    -1.11893447692235
F   7   9     0.00000000000000    -0.55695585395221     3.27181400232624
F   8   9     0.00000000000000     0.55695585395221    -3.27181400232624
[GTO]
1 0
 s    8 1.00
                  6665  0.00069158396281299
                  1000  0.0053257961529341
                   228   0.027060721042034
                 64.71    0.10165684614077
                 21.06     0.2745748236174
                 7.495    0.44829431892377
                 2.797    0.28490261071525
                0.5215   0.015194859206082
 s    8 1.00
                  6665  -0.00029326965268655
                  1000  -0.0023180354739745
                   228  -0.011499786038565
                 64.71  -0.046826727009787
                 21.06   -0.12846616875047
                 7.495   -0.30126627246289
                 2.797   -0.25563070233011
                0.5215      1.093793361012
 s    1 1.00
                0.1596                   1
 p    3 1.00
                 9.439   0.056979251590039
                 2.002    0.31320721150073
                0.5456    0.76037674173753
 p    1 1.00
                0.1517                   1
 d    1 1.00
                  0.55                   1

2 0
 s    8 1.00
                  6665  0.00069158396281299
                  1000  0.0053257961529341
                   228   0.027060721042034
                 64.71    0.10165684614077
                 21.06     0.2745748236174
                 7.495    0.44829431892377
                 2.797    0.28490261071525
                0.5215   0.015194859206082
 s    8 1.00
                  6665  -0.00029326965268655
                  1000  -0.0023180354739745
                   228  -0.011499786038565
                 64.71  -0.046826727009787
                 21.06   -0.12846616875047
                 7.495   -0.30126627246289
                 2.797   -0.25563070233011
                0.5215      1.093793361012
 s    1 1.00
                0.1596                   1
 p    3 1.00
                 9.439   0.056979251590039
                 2.002    0.31320721150073
                0.5456    0.76037674173753
 p    1 1.00
                0.1517                   1
 d    1 1.00
                  0.55                   1

3 0
 s    3 1.00
                 13.01   0.033498726389998
                 1.962    0.23480080117413
                0.4446     0.8136829578829
 s    1 1.00
                 0.122                   1
 p    1 1.00
                 0.727                   1

4 0
 s    3 1.00
                 13.01   0.033498726389998
                 1.962    0.23480080117413
                0.4446     0.8136829578829
 s    1 1.00
                 0.122                   1
 p    1 1.00
                 0.727                   1

5 0
 s    3 1.00
                 13.01   0.033498726389998
                 1.962    0.23480080117413
                0.4446     0.8136829578829
 s    1 1.00
                 0.122                   1
 p    1 1.00
                 0.727                   1

6 0
 s    3 1.00
                 13.01   0.033498726389998
                 1.962    0.23480080117413
                0.4446     0.8136829578829
 s    1 1.00
                 0.122                   1
 p    1 1.00
                 0.727                   1

7 0
 s    8 1.00
                 14710  0.00072067370873197
                  2207  0.0055504869689163
                 502.8   0.028254207662589
                 142.6    0.10639582836653
                 46.47    0.28668420124307
                  16.7    0.44843796582416
                 6.356    0.26464118141135
                 1.316   0.015326060993048
 s    8 1.00
                 14710  -0.00032119389049893
                  2207  -0.0025461915683188
                 502.8  -0.012643359507821
                 142.6   -0.05195749170489
                 46.47   -0.14344713812646
                  16.7   -0.33243762329603
                 6.356   -0.21865906750347
                 1.316     1.0955904138622
 s    1 1.00
                0.3897                   1
 p    3 1.00
                 22.67   0.064834021493887
                 4.977    0.34053535983101
                 1.347    0.73464640679382
 p    1 1.00
                0.3471                   1
 d    1 1.00
                  1.64                   1

8 0
 s    8 1.00
                 14710  0.00072067370873197
                  2207  0.0055504869689163
                 502.8   0.028254207662589
                 142.6    0.10639582836653
                 46.47    0.28668420124307
                  16.7    0.44843796582416
                 6.356    0.26464118141135
                 1.316   0.015326060993048
 s    8 1.00
                 14710  -0.00032119389049893
                  2207  -0.0025461915683188
                 502.8  -0.012643359507821
                 142.6   -0.05195749170489
                 46.47   -0.14344713812646
                  16.7   -0.33243762329603
                 6.356   -0.21865906750347
                 1.316     1.0955904138622
 s    1 1.00
                0.3897                   1
 p    3 1.00
                 22.67   0.064834021493887
                 4.977    0.34053535983101
                 1.347    0.73464640679382
 p    1 1.00
                0.3471                   1
 d    1 1.00
                  1.64                   1

[5d]
[7f]
[9g]

[MO]
 Sym= A
 Ene=               0
 Spin= Alpha
 Occup=    1.00000
   1       1.0022534764142
   2    6.5095525105731e-05
   3    -0.010944027269127
   4    9.6504064405386e-16
   5    -0.0032633008824642
   6    0.0012389165937702
   7    2.3279016304661e-16
   8    -0.00083132324945575
   9     0.001407733053628
  10    0.00011707562967287
  11    -2.8624794389296e-17
  12    -0.00019455921480785
  13    2.5170194526087e-05
  14    -1.8254805853672e-16
  15    -0.00017562369021025
  16    -0.0017077210153193
  17    0.0017500974967812
  18    2.0737854416855e-17
  19    0.0008954957174275
  20    -0.00028755440179862
  21    1.2520815131459e-16
  22    0.0012785124568625
  23    0.00071985529957083
  24    2.7942264282631e-05
  25    5.8719027477953e-18
  26    -0.0002593752788235
  27    4.5194500633489e-05
  28    7.6800050663262e-17
  29    -0.0032454798060056
  30    0.00045865060552048
  31    0.00052012449951959
  32    0.00029478291798335
  33    -0.00012335717181287
  34    -0.0032454798060082
  35    0.0004586506055195
  36    -0.00052012449952001
  37    0.00029478291798365
  38    -0.00012335717181286
  39    -0.0014241191032405
  40    -0.00024966845331841
  41    0.00010986686334486
  42    -2.3877865178719e-06
  43    5.5578509882168e-05
  44    -0.0014241191032404
  45    -0.00024966845331812
  46    -0.00010986686334489
  47    -2.3877865178899e-06
  48    5.5578509882143e-05
  49    5.7386987032545e-05
  50    -0.0028792574109079
  51    -0.0039363394187741
  52    -6.9908608213971e-16
  53    0.0021800901092275
  54    -0.00045485989037124
  55    -5.2767653593935e-16
  56    0.0010113165272273
  57    0.00044921488097689
  58    -0.00014549513175784
  59    3.7598847265603e-18
  60    0.00022097162633005
  61    7.915172940069e-05
  62    5.9842276345851e-18
  63    1.1473771774901e-05
  64    -0.00012194051817331
  65    -7.387980166731e-05
  66    2.3708845412508e-16
  67    -0.0010719607468155
  68    -0.00019904830720587
  69    1.4663076229055e-16
  70    -0.00066496110175609
  71    -1.4077976888539e-05
  72    5.3869084057909e-06
  73    3.6179250063382e-18
  74    1.9945957337082e-05
  75    -1.6343627079083e-05
  76    2.1492324350882e-18
 Sym= A
 Ene=               1
 Spin= Alpha
 Occup=    1.00000
   1                     0
   2    -0.0017077096349228
   3    0.0017481798146611
   4    -2.0193283526152e-15
   5    -0.00089606755553391
   6    0.0002877715001059
   7    -6.4305393804698e-16
   8    -0.0012786581482768
   9    -0.00071960863521756
  10    2.7962779735705e-05
  11    6.5094362743847e-17
  12    -0.00025940937518702
  13    4.5198911870991e-05
  14    -1.077461365943e-16
  15        1.002253461027
  16    6.4796284161194e-05
  17    -0.010943720769604
  18    -1.7618386573716e-15
  19    0.0032634578492206
  20    -0.0012389670006094
  21    -1.4224930272127e-15
  22    0.00083154729444932
  23    -0.0014076069358412
  24    0.00011708052776108
  25    -8.411267833509e-17
  26    -0.00019460466781819
  27    2.5178114290972e-05
  28    4.2855767545688e-17
  29    -0.0014246878266973
  30    -0.00024958808834727
  31    0.00010995800583323
  32    2.4394410168457e-06
  33    -5.5600126466937e-05
  34    -0.0014246878266945
  35    -0.00024958808834658
  36    -0.00010995800583314
  37    2.439441016733e-06
  38    -5.5600126466919e-05
  39    -0.0032457294025422
  40    0.0004586068634512
  41     0.000520143759345
  42    -0.00029478334091777
  43    0.00012336691266312
  44    -0.0032457294025395
  45    0.00045860686345045
  46    -0.00052014375934493
  47    -0.0002947833409178
  48    0.00012336691266314
  49    1.1483827804734e-05
  50    -0.00012244504892283
  51    -7.4569562907319e-05
  52    9.6564300125269e-16
  53    0.0010723427778869
  54    0.00019896860569932
  55    7.8808375537465e-16
  56    0.00066513832376547
  57    1.4156692495825e-05
  58    5.361413548483e-06
  59    9.8929504705069e-18
  60    1.9984678240262e-05
  61    -1.6329757665891e-05
  62    -6.9809872283516e-18
  63    5.738899844987e-05
  64    -0.0028792788226064
  65    -0.0039363524250831
  66    6.2216675187991e-16
  67    -0.0021802779811123
  68    0.00045482501835562
  69    6.7520349457844e-16
  70    -0.0010114330631016
  71    -0.00044921735474106
  72    -0.00014549419004994
  73    -3.091615741551e-18
  74    0.00022097512482909
  75    7.9148866741415e-05
  76    6.6717477685262e-18
 Sym= A
 Ene=               2
 Spin= Alpha
 Occup=    1.00000
   1                     0
   2    -0.0013849604964126
   3    0.0030174340995541
   4    -2.1456381539342e-16
   5    -0.00032793830449419
   6    -0.0012105834500347
   7    -6.0471992994206e-17
   8    -0.0014858788835546
   9     0.000431972873241
  10    7.4265444181043e-06
  11    2.2291370042914e-18
  12    0.00025540782343715
  13    6.8497907847013e-05
  14    -5.1394730018318e-17
  15                     0
  16    0.00045890768532803
  17    -0.00070080328170181
  18    6.5642079680832e-18
  19    0.00040437431766741
  20    0.00023272062419346
  21    -4.4478431915197e-17
  22    -2.0234267021878e-05
  23    -0.00059542355829039
  24    -1.0103288657163e-05
  25    -2.9665879662096e-18
  26    -7.3069221456196e-05
  27    -1.8005670925207e-05
  28    -1.1323321863586e-17
  29    -0.0010174661743451
  30    -0.00029897542894304
  31    9.0661428671853e-05
  32    0.00019291757418609
  33    -0.00015697029501109
  34    -0.0010174661743447
  35    -0.00029897542894286
  36    -9.0661428671843e-05
  37    0.00019291757418607
  38    -0.00015697029501108
  39    -2.542104259279e-05
  40    -0.0002466768806157
  41    1.5610973175786e-05
  42    1.0968253116398e-06
  43    -3.4585670293324e-05
  44    -2.542104259285e-05
  45    -0.00024667688061582
  46    -1.5610973175776e-05
  47    1.0968253116409e-06
  48    -3.4585670293323e-05
  49       1.0010074727954
  50    -0.0016255887215276
  51    -0.0077965715737015
  52    -3.0652023124158e-17
  53    0.0006566167084627
  54    0.0013979702538272
  55    1.8815646674935e-18
  56    -0.00058888439588757
  57    0.0027336649582323
  58    -0.00017088748478586
  59    2.6271724906161e-18
  60    0.00024543482178688
  61    7.4591839010083e-05
  62    5.4581848656662e-19
  63    -5.5084675336527e-05
  64    -0.00020710968399138
  65    -0.00019475212507504
  66    -8.5519054934037e-17
  67    -0.0011879897095883
  68    -0.00060618811505243
  69    -5.5531055128705e-17
  70    -0.00073384053290379
  71    -0.00032883588431399
  72    -7.5194565605289e-06
  73    -1.5764310951077e-18
  74    -9.1936037326638e-06
  75    -8.8155387816739e-06
  76    6.892765360416e-19
 Sym= A
 Ene=               3
 Spin= Alpha
 Occup=    1.00000
   1                     0
   2    0.00045883147270633
   3    -0.00070063723567017
   4    2.1165641089183e-16
   5    -0.00040439236447371
   6    -0.00023278724202682
   7    1.6357142511101e-16
   8    2.0152500273433e-05
   9    0.00059544733032648
  10    -1.0102879995177e-05
  11    -1.376975236651e-17
  12    -7.3055166669604e-05
  13    -1.8001901565077e-05
  14    8.2962905976736e-17
  15                     0
  16    -0.0013849352451711
  17    0.0030173955394478
  18    3.3890611783882e-16
  19    0.00032796055739976
  20    0.0012105962583064
  21    1.2266509017737e-16
  22    0.0014858777723251
  23    -0.00043200563959703
  24    7.4259884525435e-06
  25    1.5339108541332e-17
  26    0.00025540380288144
  27     6.84969171128e-05
  28    -3.4063471695365e-17
  29    -2.5477033016405e-05
  30    -0.00024669333337806
  31    1.5615962228409e-05
  32    -1.0862092068729e-06
  33    3.4577032390439e-05
  34    -2.5477033016602e-05
  35    -0.00024669333337797
  36    -1.5615962228427e-05
  37    -1.0862092068685e-06
  38    3.4577032390441e-05
  39    -0.0010174675747858
  40    -0.00029898900383561
  41    9.0662287869171e-05
  42    -0.00019291751412056
  43    0.00015696839202563
  44    -0.0010174675747862
  45    -0.00029898900383581
  46    -9.0662287869192e-05
  47    -0.00019291751412059
  48    0.00015696839202562
  49                     0
  50    -0.00020719913920848
  51    -0.00019518116473865
  52    -4.9712819412185e-17
  53    0.0011880258445024
  54    0.0006062650452041
  55    -5.6276469247947e-17
  56    0.00073380812815772
  57    0.00032898631630349
  58    -7.5288603793422e-06
  59    -4.1011133020303e-19
  60    -9.1800976562879e-06
  61    -8.8114340631341e-06
  62    6.9145300695095e-20
  63       1.0010074712798
  64     -0.00162560012108
  65    -0.0077965823025608
  66    -2.6990605549742e-16
  67    -0.00065668208362127
  68    -0.0013980036140123
  69    -2.043126143873e-16
  70    0.00058884401409522
  71    -0.0027336830579566
  72    -0.00017088789883431
  73    -1.3140829410132e-19
  74    0.00024543431624124
  75    7.459135401067e-05
  76    -1.0552825478131e-18
 Sym= A
 Ene=               4
 Spin= Alpha
 Occup=    1.00000
   1                     0
   2    6.1283575386033e-16
   3    -2.5276705497113e-15
   4    -0.010609490488395
   5    -1.284656934821e-16
   6    1.632854708678e-16
   7    -0.040963787948348
   8    -2.3395321602542e-15
   9    -2.3545557410288e-15
  10    3.1175083468121e-16
  11    0.0014222829115561
  12    6.4534808117689e-16
  13    -4.0497118478603e-16
  14     0.001246584284582
  15                     0
  16    9.986438988992e-16
  17    -1.3965272327299e-14
  18    -0.012006280022034
  19    5.1469572667113e-17
  20    2.0978752995703e-16
  21     0.033850593098544
  22    2.2430281541929e-15
  23    7.1978460334008e-16
  24    1.2956618826442e-16
  25    -0.027558143371999
  26    3.3484949747944e-17
  27    -2.2427217058574e-16
  28     0.023780092747178
  29    -0.0011602489621911
  30     0.031896518538801
  31    -0.00050149691682941
  32    -0.0010846381543887
  33    -0.0015517170464723
  34    0.0011602489621916
  35    -0.031896518538797
  36    -0.00050149691682882
  37    0.0010846381543884
  38    0.0015517170464726
  39    -0.056932327607148
  40    -0.056113598119646
  41    -0.00079582129391165
  42    -0.0020067868846826
  43    0.00080229087396337
  44      0.05693232760715
  45     0.056113598119656
  46    -0.00079582129391038
  47    0.0020067868846835
  48    -0.00080229087396347
  49                     0
  50    -2.6174643305426e-16
  51    8.6446834074568e-16
  52    0.0065927719169163
  53    2.6004139152098e-16
  54    1.4010160488734e-16
  55    0.0087702047124612
  56    8.9141173904734e-16
  57    1.6567315026088e-16
  58    -3.8738063232851e-17
  59    0.00015444806375675
  60    -1.0237866897021e-17
  61    -5.3400429593185e-17
  62    0.0001042004753582
  63                     0
  64    -6.3983304596667e-16
  65    2.405105613642e-15
  66      0.66729796826708
  67    -9.3846008611704e-17
  68    -1.1458417261949e-16
  69      0.47178325240027
  70    -1.5292845272126e-15
  71    1.020852025113e-15
  72    2.6688184408026e-17
  73     0.010868609182732
  74    -1.1727674634286e-16
  75    -4.4781854081755e-18
  76    -0.0063328448352929
 Sym= A
 Ene=               5
 Spin= Alpha
 Occup=    1.00000
   1                     0
   2    -1.9475526528468e-15
   3    1.1127141251245e-14
   4    -0.011902041251073
   5    -1.2745022648084e-16
   6    -3.9610372864367e-16
   7     0.034256979180803
   8    -4.5568526724811e-15
   9    -5.184635664422e-15
  10    -1.9664324881046e-16
  11     0.027545435892766
  12    2.806623956274e-16
  13    2.964967724292e-16
  14    -0.023793570032669
  15                     0
  16    2.6591220623824e-15
  17    -1.3067041198831e-14
  18    -0.010491382863955
  19    -4.0415279146801e-16
  20    -4.2195899430143e-16
  21    -0.041300240829189
  22    -4.2101916275815e-15
  23    -5.0064221152376e-15
  24    -1.5528737064992e-16
  25    -0.0011500700376063
  26    -1.1258042933923e-16
  27    -1.2782266123946e-17
  28    -0.0014815992081568
  29    -0.056923642817092
  30    -0.056431483632436
  31    -0.00079090520484818
  32      0.00201760136701
  33    -0.00078699862711393
  34     0.056923642817091
  35     0.056431483632437
  36    -0.00079090520484806
  37    -0.0020176013670097
  38    0.00078699862711434
  39    -0.00059779800457452
  40     0.032452493678013
  41    -0.00049365845359023
  42    0.0011045187194357
  43    0.0015438659219472
  44    0.00059779800457463
  45    -0.032452493678013
  46    -0.00049365845359051
  47    -0.0011045187194354
  48    -0.0015438659219466
  49                     0
  50    1.453877849586e-16
  51    -7.8020644887262e-16
  52      0.66726539983115
  53    1.113802888331e-15
  54    -3.7099923320733e-16
  55      0.47171962746675
  56    -3.5502698506557e-16
  57    5.5622418907947e-16
  58    3.751916118166e-17
  59    -0.010870665657501
  60    -1.3841448306361e-16
  61    6.8254128894989e-18
  62     0.006332124403638
  63                     0
  64    -1.1449702697753e-16
  65    8.4067329450481e-16
  66                     0
  67    1.9249771385784e-16
  68    -1.6138930383012e-16
  69    0.0041092800695351
  70    3.3105134954625e-17
  71    8.5174789985603e-16
  72    3.6412101324114e-17
  73    -0.00026184055188189
  74    2.301272866862e-17
  75    -3.7751848069098e-17
  76    -4.1635253261523e-05
 Sym= A
 Ene=               6
 Spin= Alpha
 Occup=    1.00000
   1                     0
   2     0.066167400058068
   3     -0.01516147823033
   4    -4.5042260392342e-16
   5    -0.090744980412778
   6      0.12192971717561
   7    1.7587417813025e-15
   8    -0.0082609421595737
   9     0.053930811684092
  10     0.039148232811546
  11    5.6390881611584e-17
  12    -0.0075624142653092
  13    0.0035607636663061
  14    3.7805441981118e-17
  15                     0
  16     0.022978049911826
  17     0.075004609951353
  18    -4.7185208798266e-16
  19      0.01339742635099
  20      0.02578380057972
  21    -6.6553358616721e-15
  22     0.031926450640212
  23    0.0015520666452651
  24    0.0052873707481154
  25    1.5908420521019e-16
  26    0.0019758567779662
  27    0.0038998730318172
  28    8.817405484532e-16
  29    -0.038421424947258
  30    -0.034590086042298
  31    0.00047781048154016
  32    -0.0028343724100387
  33    0.0017704691588246
  34    -0.038421424947259
  35    -0.034590086042296
  36    -0.00047781048154047
  37    -0.0028343724100376
  38     0.001770469158825
  39    0.0044193523661944
  40    -0.015593142400431
  41    -0.00028983726829024
  42    -0.00097885078799926
  43    0.00026381068001466
  44    0.0044193523661935
  45    -0.015593142400443
  46    0.00028983726828942
  47    -0.00097885078799979
  48    0.00026381068001478
  49                     0
  50    -0.028016224903249
  51    -0.072715549980009
  52                     0
  53      0.63494005291246
  54     0.092614083959875
  55    -6.5198096151171e-16
  56      0.44193940849102
  57     0.077804190138777
  58    -0.0031781015225251
  59    2.3558348491039e-17
  60    -0.012725399634344
  61    -0.0076831970777699
  62    -6.0021988635504e-17
  63                     0
  64    0.0031104472964039
  65    -0.016368391249296
  66                     0
  67    0.0049410427994933
  68    0.00044486039784644
  69    3.6860558676346e-16
  70    0.0085175270456284
  71    -0.0045358554861365
  72    0.00060911399918992
  73    6.4575251376166e-18
  74    0.00010867130204316
  75    0.00032079473286435
  76    1.8427120447933e-18
 Sym= A
 Ene=               7
 Spin= Alpha
 Occup=    1.00000
   1                     0
   2     -0.02349366967033
   3    -0.074888892373456
   4    -1.0704574349854e-16
   5     0.014104022176893
   6     0.024835707187819
   7    -3.2141393990313e-15
   8     0.031991705194532
   9    0.0011324165128199
  10    -0.0055921878822983
  11    3.3011700698301e-17
  12    -0.001917064840744
  13    -0.0039277014830498
  14    -5.7971402712921e-16
  15                     0
  16    -0.066348222035503
  17     0.014578240946673
  18    6.2487627649816e-17
  19    -0.090851988854684
  20      0.12173275610824
  21    6.6340936770282e-16
  22    -0.0085096484143916
  23     0.053920366330275
  24    -0.039190565295107
  25    3.1620754764435e-16
  26    0.0075472668640181
  27    -0.0035912208457487
  28    -1.8102860530102e-17
  29    -0.0041204852759962
  30     0.015862799460911
  31    0.00028612765659009
  32    -0.00095682294493259
  33    0.00025004062935497
  34    -0.0041204852759972
  35     0.015862799460906
  36    -0.00028612765659044
  37    -0.00095682294493264
  38    0.00025004062935493
  39     0.038388196344071
  40     0.034712481461719
  41    -0.00047556939561551
  42    -0.0028268406820275
  43    0.0017684697576688
  44     0.038388196344072
  45      0.03471248146172
  46    0.00047556939561558
  47    -0.0028268406820276
  48    0.0017684697576687
  49                     0
  50    -0.0028925152960531
  51       0.0169347694845
  52                     0
  53                     0
  54    -0.00027586190374358
  55    4.5196795505454e-16
  56     0.005078550588445
  57    -0.005141475937894
  58    -0.00058440001225456
  59    -5.2044092415548e-19
  60    -9.6437504841664e-06
  61    -0.00026101273095105
  62    -4.680388403792e-18
  63                     0
  64     0.027992867309079
  65     0.072845132948591
  66                     0
  67         0.63492082726
  68     0.092613426384855
  69    2.2548323538519e-16
  70      0.44188650600182
  71     0.077841844742912
  72    0.0031734575462401
  73    -5.8886532702776e-18
  74      0.01272493926916
  75    0.0076809332584616
  76    2.4216793664079e-17
 Sym= A
 Ene=               8
 Spin= Alpha
 Occup=    1.00000
   1                     0
   2     -0.10867096543295
   3     0.010166086242682
   4    -1.4299290519872e-16
   5      0.14285542935552
   6     -0.22401907795142
   7    1.7800968924969e-15
   8     0.018201825215847
   9    -0.023164781795718
  10    -0.0092302697257349
  11    -3.9006634446219e-16
  12     0.044233001861836
  13      0.01986780098862
  14    -2.6287432671652e-16
  15                     0
  16     0.037008748921135
  17     0.041436216970056
  18    -7.9306187592125e-17
  19     0.031213536931085
  20     0.041384194932882
  21    -7.0038815480123e-15
  22     0.032615851472995
  23    0.0059015073356071
  24    -0.0092024889718202
  25    8.3469044303869e-17
  26    0.0044368894390877
  27    -0.0027678346800373
  28    7.1240248641198e-16
  29      0.00769531209677
  30    0.0087770514085686
  31    0.00025330036499152
  32    0.0052645378654607
  33    -0.0079806241584043
  34    0.0076953120967696
  35    0.0087770514085686
  36    -0.00025330036499197
  37    0.0052645378654614
  38    -0.0079806241584043
  39    0.0093914578959377
  40    -0.00099009854086936
  41    -0.0003958169531574
  42    0.0011064437872807
  43    0.00036716544972523
  44     0.009391457895937
  45    -0.00099009854088208
  46    0.0003958169531567
  47      0.00110644378728
  48    0.00036716544972515
  49                     0
  50     0.057670055986917
  51      0.10086647296568
  52                     0
  53                     0
  54      0.58888069558025
  55    -2.6105344439234e-16
  56     0.010004875272169
  57      0.40318214225519
  58     -0.01505561782094
  59    -5.6002153070544e-17
  60     0.011900030132371
  61    0.0019493046551908
  62    1.9511724577375e-17
  63                     0
  64    -0.0086916617640407
  65    -0.026112964113428
  66                     0
  67                     0
  68    -0.043756208945613
  69    6.0498770940087e-16
  70    -0.0015053010522299
  71    -0.035886056723071
  72    0.00022866391027795
  73    4.3469139496884e-18
  74    0.00071728159303697
  75    0.00023653022896188
  76    -8.6667405899255e-19
 Sym= A
 Ene=               9
 Spin= Alpha
 Occup=    1.00000
   1                     0
   2    -0.045208412176684
   3    -0.040793604215709
   4    1.9771469782706e-16
   5     0.041944220204776
   6     0.024807250919492
   7    2.2668495384921e-16
   8     0.034062481584463
   9    0.0041918585194156
  10    0.0085402511058861
  11    -2.8876596540669e-16
  12    -0.0011533875205822
  13    0.0042558571069801
  14    -3.110158018883e-16
  15                     0
  16      0.11172972640689
  17    -0.0071068542699745
  18    2.5548537765811e-16
  19      0.14557714936482
  20     -0.22155652866513
  21    -6.6831502894559e-15
  22     0.020682488379584
  23     -0.02278927389494
  24    0.0085701788128915
  25    -5.0817229201039e-16
  26    -0.044025024345106
  27    -0.020129106463586
  28    7.6001559736719e-16
  29    -0.0088441135547223
  30    0.0016468212486876
  31    0.00041578757986804
  32    0.0015017716127819
  33    -0.00022645308723026
  34    -0.0088441135547227
  35    0.0016468212486851
  36    -0.00041578757986867
  37    0.0015017716127825
  38    -0.00022645308722989
  39    -0.0070168861629869
  40    -0.0088751538878549
  41    -0.00028349484311199
  42    0.0053615724428035
  43    -0.0079753891748893
  44    -0.0070168861629886
  45    -0.0088751538878658
  46    0.0002834948431111
  47    0.0053615724428024
  48    -0.0079753891748892
  49                     0
  50     0.013012751339837
  51     0.033700911189087
  52                     0
  53                     0
  54                     0
  55    -1.8897219203185e-16
  56    -0.00076401050271644
  57    -0.0059444312577868
  58    -0.0013510919020027
  59    4.7376372159888e-18
  60    0.00016740136295075
  61    -9.1943201733169e-05
  62    1.9562561090124e-18
  63                     0
  64    -0.058477534752639
  65     -0.10309175470774
  66                     0
  67                     0
  68        0.587252814217
  69    7.3857448705616e-16
  70    0.0099204490826822
  71      0.40162590433056
  72     0.015114390166791
  73    2.994852460149e-17
  74    -0.011879572697869
  75    -0.0019370843146028
  76    -1.365232293302e-17
 Sym= A
 Ene=              10
 Spin= Alpha
 Occup=    1.00000
   1                     0
   2    -0.026416250233559
   3    -0.0023141516177837
   4    -2.7700298720507e-15
   5     0.019381664330238
   6     0.022223200867833
   7    -3.8747857217851e-15
   8     0.001680347980085
   9    -0.00088270431018977
  10    0.0015246234279313
  11    3.951763535967e-16
  12    -0.0013948054990921
  13    0.0020808063333269
  14    -8.0796489744297e-17
  15                     0
  16    -0.00065925727458431
  17     -0.04842870920535
  18    -5.3710875327101e-15
  19     0.043081632101267
  20     -0.08535598970477
  21    4.2992616841351e-15
  22    0.0049458397450233
  23    -0.025862454656883
  24     0.014342810171709
  25    -6.7428917121944e-17
  26    -0.023700760123483
  27    -0.007328849961331
  28    -4.076316169186e-16
  29    -0.0043935116546575
  30    0.0045714214769727
  31    0.00014276736962022
  32    0.0011942979579428
  33    0.00056075322844635
  34    -0.004393511654654
  35    0.0045714214769707
  36    -0.00014276736962021
  37    0.0011942979579428
  38    0.00056075322844621
  39    -0.018817975628446
  40    0.0018248806204516
  41    -5.4190005016094e-05
  42    0.0010799116213067
  43    -0.0014378562744055
  44    -0.018817975628438
  45     0.001824880620465
  46    5.4190005017238e-05
  47    0.0010799116213079
  48    -0.0014378562744055
  49                     0
  50    0.0067935831917451
  51     0.012734426048982
  52                     0
  53                     0
  54                     0
  55    6.9364351256562e-16
  56    -0.0016232255612056
  57    -0.0024131729383319
  58    -0.00039094325064419
  59    3.2206393382559e-17
  60    5.3457721025724e-05
  61    -7.5234321395749e-05
  62    -1.8661040659737e-17
  63                     0
  64      0.48862339337518
  65       0.5517530022201
  66                     0
  67                     0
  68                     0
  69    -4.2929901535735e-16
  70    0.0065805996266038
  71    -0.0061190164372044
  72    0.0023089029837427
  73    -7.4641541629631e-17
  74    -0.003329023650374
  75    -0.0011954256541269
  76    5.9741854753083e-17
 Sym= A
 Ene=              11
 Spin= Alpha
 Occup=    1.00000
   1                     0
   2    -4.9585019050482e-05
   3    -0.048388188239834
   4    4.4673134223756e-15