[Molden Format]
made by pyscf v[2.0.1]
[Atoms] (AU)
C   1   6     0.00000000000000     0.00000000000000     0.00000000000000
C   2   6     2.89040035821050     0.00000000000000     0.00000000000000
H   3   1     3.65380793584534     0.00000000000000     1.93990930394644
H   4   1     3.65380793584534    -1.68001073825540    -0.96995465197322
H   5   1     3.65380793584534     1.68001073825540    -0.96995465197322
H   6   1    -0.76340757763484    -0.96995465197322     1.68001073825540
H   7   1    -0.76340757763484     1.93990930394644     0.00000000000000
H   8   1    -0.76340757763484    -0.96995465197322    -1.68001073825540
[GTO]
1 0
 s    8 1.00
                  6665  0.00069158396281299
                  1000  0.0053257961529341
                   228   0.027060721042034
                 64.71    0.10165684614077
                 21.06     0.2745748236174
                 7.495    0.44829431892377
                 2.797    0.28490261071525
                0.5215   0.015194859206082
 s    8 1.00
                  6665  -0.00029326965268655
                  1000  -0.0023180354739745
                   228  -0.011499786038565
                 64.71  -0.046826727009787
                 21.06   -0.12846616875047
                 7.495   -0.30126627246289
                 2.797   -0.25563070233011
                0.5215      1.093793361012
 s    1 1.00
                0.1596                   1
 p    3 1.00
                 9.439   0.056979251590039
                 2.002    0.31320721150073
                0.5456    0.76037674173753
 p    1 1.00
                0.1517                   1
 d    1 1.00
                  0.55                   1

2 0
 s    8 1.00
                  6665  0.00069158396281299
                  1000  0.0053257961529341
                   228   0.027060721042034
                 64.71    0.10165684614077
                 21.06     0.2745748236174
                 7.495    0.44829431892377
                 2.797    0.28490261071525
                0.5215   0.015194859206082
 s    8 1.00
                  6665  -0.00029326965268655
                  1000  -0.0023180354739745
                   228  -0.011499786038565
                 64.71  -0.046826727009787
                 21.06   -0.12846616875047
                 7.495   -0.30126627246289
                 2.797   -0.25563070233011
                0.5215      1.093793361012
 s    1 1.00
                0.1596                   1
 p    3 1.00
                 9.439   0.056979251590039
                 2.002    0.31320721150073
                0.5456    0.76037674173753
 p    1 1.00
                0.1517                   1
 d    1 1.00
                  0.55                   1

3 0
 s    3 1.00
                 13.01   0.033498726389998
                 1.962    0.23480080117413
                0.4446     0.8136829578829
 s    1 1.00
                 0.122                   1
 p    1 1.00
                 0.727                   1

4 0
 s    3 1.00
                 13.01   0.033498726389998
                 1.962    0.23480080117413
                0.4446     0.8136829578829
 s    1 1.00
                 0.122                   1
 p    1 1.00
                 0.727                   1

5 0
 s    3 1.00
                 13.01   0.033498726389998
                 1.962    0.23480080117413
                0.4446     0.8136829578829
 s    1 1.00
                 0.122                   1
 p    1 1.00
                 0.727                   1

6 0
 s    3 1.00
                 13.01   0.033498726389998
                 1.962    0.23480080117413
                0.4446     0.8136829578829
 s    1 1.00
                 0.122                   1
 p    1 1.00
                 0.727                   1

7 0
 s    3 1.00
                 13.01   0.033498726389998
                 1.962    0.23480080117413
                0.4446     0.8136829578829
 s    1 1.00
                 0.122                   1
 p    1 1.00
                 0.727                   1

8 0
 s    3 1.00
                 13.01   0.033498726389998
                 1.962    0.23480080117413
                0.4446     0.8136829578829
 s    1 1.00
                 0.122                   1
 p    1 1.00
                 0.727                   1

[5d]
[7f]
[9g]

[MO]
 Sym= A
 Ene=               0
 Spin= Alpha
 Occup=    1.00000
   1    -0.00013183386996543
   2    0.00015679342654154
   3    0.0023848505406629
   4    0.00031292161286104
   5    -4.5990066916827e-09
   6    4.3892815236048e-08
   7    0.0011710470784862
   8    -2.910284735509e-08
   9    4.7044082795313e-10
  10    0.00010149281314072
  11    1.4743262176546e-08
  12    -5.2969881008218e-09
  13    -0.00017577569454932
  14    4.6543246923681e-08
  15        1.002269723255
  16    0.0054758298614643
  17    -0.0088648320312903
  18    0.00020620427546114
  19    9.6827058576662e-07
  20    3.5757650059581e-07
  21    0.0007870264715227
  22    4.6221677801187e-07
  23    1.7034103611615e-07
  24    8.9051752578047e-05
  25    1.211441486156e-08
  26    -4.9797724775809e-08
  27    -0.00015420268630082
  28    3.9237901357518e-08
  29    0.00047785714159056
  30    0.0012640922871106
  31    8.9700428796815e-05
  32    1.4129620211461e-06
  33    0.00036829767044317
  34    0.00047666455861215
  35    0.0012635719819712
  36    8.9741143780913e-05
  37    -0.00031969465171172
  38    -0.00018298531625449
  39    0.00047812159146072
  40    0.0012642155241686
  41    8.9691561078833e-05
  42    0.00031826445228628
  43    -0.00018531911764685
  44    -0.00010385344122533
  45    9.9829441034462e-05
  46    4.5323075328679e-05
  47    5.5086298237802e-06
  48    -1.7169368397512e-05
  49    -0.00010397802581607
  50    9.9682043437656e-05
  51    4.5317801897714e-05
  52    -1.7625639424462e-05
  53    3.8148498977044e-06
  54    -0.00010387859928881
  55    9.984896679015e-05
  56    4.5319310393276e-05
  57    1.2110448345272e-05
  58    1.3352830036499e-05
 Sym= A
 Ene=               1
 Spin= Alpha
 Occup=    1.00000
   1       1.0022697175023
   2    0.0054758506683851
   3    -0.0088648218271719
   4    -0.00020625370212704
   5    -2.2633971232811e-07
   6    -3.7863057930407e-07
   7    -0.0007870539245152
   8    -1.0261950891896e-07
   9    -1.7761531490852e-07
  10    8.9042292213249e-05
  11    1.3489717952487e-08
  12    2.0060514620435e-08
  13    -0.0001542038872592
  14    -5.2619928777299e-10
  15    -0.0001318081194905
  16    0.00015699126819808
  17    0.0023849691376884
  18    -0.00031278600700492
  19    -2.0008476296143e-07
  20    -3.9544559118057e-08
  21    -0.0011709800328953
  22    -8.4865026078105e-08
  23    -9.3716473630308e-09
  24    0.00010149047096761
  25    1.6618521136028e-08
  26    1.0981345414186e-08
  27    -0.00017578471071679
  28    2.5268779039857e-09
  29    -0.000103768688927
  30    9.9844947664996e-05
  31    -4.5322469186795e-05
  32    3.8074393385141e-06
  33    -1.7636337958954e-05
  34    -0.00010362127556138
  35    9.9855149134437e-05
  36    -4.5328099889959e-05
  37    1.3376090410398e-05
  38    1.2129033701758e-05
  39    -0.00010389548777305
  40    9.9756937270622e-05
  41    -4.5317525295679e-05
  42    -1.7179045447513e-05
  43    5.5107484459606e-06
  44    0.00047738502568907
  45    0.0012638805723258
  46    -8.9718441047122e-05
  47    -0.00018536700784506
  48    0.00031827586792827
  49    0.00047739325771625
  50    0.0012639056690625
  51    -8.9718090458895e-05
  52    0.00036831976490882
  53    1.3712561320595e-06
  54    0.00047795005091189
  55    0.0012641277198079
  56    -8.9698709501632e-05
  57    -0.00018294734387978
  58    -0.00031964038669064
 Sym= A
 Ene=               2
 Spin= Alpha
 Occup=    1.00000
   1    -0.013424826955429
   2      0.18300673886618
   3      0.11030715136546
   4      -0.1242885917701
   5     -0.17394038719569
   6      0.29926344313414
   7    -0.060710049076075
   8    -0.082838803652084
   9       0.1431947719431
  10     0.011104129887557
  11    -0.011987549793561
  12    -0.015735447610671
  13    -0.002153984400614
  14    0.0069942411734374
  15    -0.002419699786728
  16     -0.02055333521375
  17    -0.015010518346119
  18     0.025099438197381
  19    -0.0011080710065361
  20    0.00027397588820179
  21        0.015221484432
  22    0.0020539030580374
  23    -0.010928174335266
  24    -0.0029065816099743
  25    -0.014156705006057
  26    -0.0024837116256324
  27     0.003486801256898
  28    0.0084121578467166
  29    -0.021005372891804
  30    -0.024069480559178
  31    0.0015075586892971
  32    0.00024352157662867
  33    -0.00082630763183908
  34    -0.00016330500301799
  35    0.0021630509259416
  36    0.0017877081508591
  37    0.00039453304845485
  38    -0.00029030659381133
  39      0.02110881217422
  40     0.037166894092662
  41    0.00056620072128176
  42    0.00090592280949017
  43    -0.00053948750819594
  44      0.43100934716017
  45      0.16139940943124
  46     0.012782649215144
  47     0.014854370095589
  48    -0.026019398321707
  49    -0.020260861795739
  50    -0.037504471826655
  51    -0.0025365239270913
  52    -0.0076844889527465
  53    0.0091930904870643
  54    -0.019959634494971
  55    -0.036944181190324
  56    -0.0025597690829551
  57    -0.0040701237655903
  58     0.011443399869585
 Sym= A
 Ene=               3
 Spin= Alpha
 Occup=    1.00000
   1    -0.0024203437237958
   2    -0.020552675922681
   3    -0.015009777924476
   4    -0.025094272675763
   5    -0.0010965404987369
   6    0.00031818979680907
   7    -0.015219041433325
   8     0.007243007463018
   9    0.0084376953058808
  10    -0.0044345091412345
  11    -0.0080538228277376
  12    0.00057171981938221
  13    0.0026051043156261
  14    -0.014363664047738
  15      -0.0134232383232
  16      0.18300825520053
  17      0.11030838639804
  18        0.124283839151
  19      -0.3002720683711
  20     -0.17219494068108
  21     0.060707799345435
  22      -0.1433396122364
  23    -0.082588752134187
  24    -0.0043951299039728
  25    -0.0068842840111055
  26     0.015263302311523
  27    -0.011102090709043
  28    -0.012051109766171
  29    -0.019956570877908
  30    -0.036943143250183
  31    0.0025595363242974
  32    -0.0092466376700083
  33    -0.007875360644009
  34       0.4310092485055
  35      0.16139919336231
  36    -0.012782771659048
  37     0.025873851852722
  38     0.015106415444222
  39    -0.020266325358881
  40    -0.037507032409708
  41    0.0025365806688641
  42     -0.01125122589193
  43    -0.004119289907324
  44    -0.00016405615792589
  45    0.0021622279000212
  46    -0.0017875995974251
  47    0.00048682405572247
  48    5.419803175961e-05
  49     0.021107742545877
  50     0.037166561860418
  51    -0.00056611594282091
  52    0.0010544185059442
  53    1.428530070308e-05
  54     -0.02100767704148
  55    -0.024070369528688
  56    -0.0015075005733845
  57    0.00062394671620424
  58    0.00059369437239447
 Sym= A
 Ene=               4
 Spin= Alpha
 Occup=    1.00000
   1    -0.0024198912966469
   2    -0.020553677573908
   3    -0.015010736370363
   4    -0.025099393257585
   5    0.00082690702672574
   6    0.00078972958462131
   7    -0.015221469551876
   8    0.0036871677600405
   9    -0.010491839761049
  10    -0.00070890911316721
  11     0.016466181671526
  12    0.0019120106898521
  13    0.0047556472942135
  14    0.00020696047196856
  15    -0.013425891935416
  16      0.18300720131697
  17      0.11030744082902
  18      0.12428894070789
  19    0.0010122705167611
  20      0.34613947551177
  21     0.060710213406194
  22    0.00014644422781987
  23      0.16542958789104
  24      0.01920801066369
  25      0.01387869611566
  26    0.00047198836047128
  27    0.0025247579724005
  28    6.3500211873268e-05
  29      0.43100940331407
  30      0.16139942876302
  31     -0.01278263950429
  32    0.00014565299443151
  33    -0.029960660600871
  34    -0.020265526529562
  35    -0.037506364247172
  36    0.0025366846912266
  37    0.0020582817416969
  38     0.011803475766786
  39     -0.01995400468599
  40    -0.036942089171641
  41    0.0025595778250519
  42    -0.0021971077951127
  43     0.011945582741725
  44    -0.021008297423991
  45    -0.024070376184012
  46    -0.001507655370125
  47    0.0002022392389066
  48    -0.00083716085003845
  49    -0.00016028674198475
  50     0.002163929825053
  51    -0.0017876016239259
  52    -0.00019670573149696
  53    -0.00044872325918414
  54     0.021108187374838
  55     0.037166847648278
  56    -0.00056623602592397
  57    -0.00051472783305904
  58    -0.00092028909269167
 Sym= A
 Ene=               5
 Spin= Alpha
 Occup=    1.00000
   1    -0.013424726318297
   2      0.18300580486986
   3      0.11030661606753
   4     -0.12428749168149
   5      0.34614098665281
   6    0.0010049027338102
   7    -0.060709515581721
   8      0.16543025362003
   9    0.00014319434171283
  10    -0.011790659516916
  11    -6.3604339869369e-05
  12    0.00047232931017809
  13    -0.015372219597895
  14    -0.013878809342158
  15    -0.0024195807032351
  16    -0.020553254994119
  17    -0.015010430323922
  18     0.025098832156469
  19    0.00078875409635443
  20    0.00081850186004498
  21     0.015221177635732
  22    -0.010492275314632
  23    0.0036833951003324
  24    -0.0037644010235566
  25    -0.00020694789234919
  26    0.0019120953312613
  27    0.0029915482366969
  28    -0.016466298503436
  29    -0.00016705758694026
  30    0.0021613825669981
  31    0.0017878190374234
  32    -0.00044875986506907
  33    -0.00019632999568033
  34     0.021112412206927
  35     0.037168524782989
  36    0.00056605977406271
  37    -0.00091999514177146
  38    -0.0005147862690941
  39    -0.021005731973578
  40    -0.024069731807419
  41    0.0015075508024163
  42    -0.0008374213750725
  43    0.00020211726331625
  44    -0.019960882633243
  45    -0.036944455402136
  46    -0.0025597982143132
  47     0.011945301566277
  48    -0.0021967447847808
  49      0.43100963257537
  50      0.16139989584543
  51     0.012782684088998
  52    -0.029960587936487
  53    0.00014543596078442
  54    -0.020262357448008
  55    -0.037505330253339
  56    -0.0025365492061757
  57     0.011803675835558
  58    0.0020583198657358
 Sym= A
 Ene=               6
 Spin= Alpha
 Occup=    1.00000
   1    -0.013426053238237
   2      0.18300596900146
   3        0.110306698263
   4      -0.1242881287913
   5     -0.17219915471256
   6     -0.30026951520773
   7    -0.060709837751533
   8    -0.082590705847015
   9     -0.14333846548511
  10     0.011812592853231
  11      0.01205114056535
  12     0.015263184793002
  13    -0.0017448862950045
  14    0.0068844073804252
  15    -0.002419602960379
  16    -0.020552360924215
  17    -0.015009918226613
  18     0.025099822166396
  19    0.0003171816476386
  20    -0.001093768184766
  21     0.015221663952712
  22    0.0084373186925419
  23    0.0072442111193577
  24    -3.8484903511336e-05
  25     0.014363656331495
  26    0.00057173904501631
  27    0.0051426473908651
  28    0.0080539850641142
  29     0.021111945203305
  30     0.037168184089466
  31    0.00056609674659513
  32    1.4261444930508e-05
  33    0.0010541074014428
  34    -0.021006328584018
  35    -0.024070063855315
  36    0.0015075905257094
  37    0.00059380200153759
  38    0.00062410761281189
  39    -0.00016369677762629
  40    0.0021626575021018
  41    0.0017877230484492
  42    5.416286821899e-05
  43    0.0004869144084192
  44    -0.020262461335825
  45    -0.037505195720824
  46    -0.002536569891239
  47    -0.0041192608437155
  48    -0.011251426458574
  49    -0.019959845967107
  50    -0.036944199280532
  51    -0.0025597760565757
  52    -0.0078751741137802
  53    -0.0092465647516235
  54      0.43100960681506
  55      0.16139984814289
  56     0.012782661448106
  57     0.015106277663042
  58     0.025873914385996
 Sym= A
 Ene=               7
 Spin= Alpha
 Occup=    1.00000
   1    -0.0024196722809387
   2    -0.020552903363846
   3    -0.015010158971344
   4    -0.025098024890213
   5    0.00027082638505371
   6    -0.0011065437241144
   7    -0.015220796207746
   8    -0.010929666584715
   9    0.0020548875231773
  10    -0.0015663061919509
  11    -0.0084125619232306
  12    -0.0024838227940527
  13     0.004260684305081
  14     0.014156704515416
  15    -0.013426353965984
  16      0.18300583148931
  17      0.11030670983861
  18       0.1242865292581
  19      0.29926085451476
  20      -0.1739476182626
  21      0.06070906033297
  22      0.14319362514147
  23    -0.082842340332421
  24    -0.0036870514993844
  25    -0.0069946024978291
  26    -0.015735350412348
  27    -0.010693512580792
  28     0.011987595390822
  29    -0.020268372190528
  30    -0.037507717331925
  31    0.0025367285569028
  32    0.0091930133692762
  33    -0.0076840651595993
  34     -0.01995582046209
  35     -0.03694251600483
  36    0.0025595973115403
  37     0.011443598132249
  38    -0.0040701872167585
  39      0.43100968810874
  40      0.16139994372654
  41    -0.012782703075969
  42    -0.026019451556199
  43     0.014854134365532
  44     0.021111413358706
  45     0.037168271428572
  46    -0.00056608366075886
  47    -0.00053948727145267
  48    0.00090581758899092
  49    -0.021008169537835
  50    -0.024070544635633
  51    -0.0015076043928221
  52    -0.00082614151995895
  53    0.00024357565397833
  54    -0.00016390729211471
  55    0.0021621659215762
  56    -0.0017876836788965
  57    -0.00029039001217086
  58    0.00039459872187462
 Sym= A
 Ene=               8
 Spin= Alpha
 Occup=    1.00000
   1     0.010916790010186
   2     -0.19897606706942
   3     -0.14934110643718
   4     -0.36538582039331
   5    2.3634044231778e-07
   6    -7.3616757467238e-08
   7     -0.16966429316077
   8    1.6596869077036e-07
   9    6.3614213988989e-08
  10     0.016010271514258
  11    -1.1072384224502e-07
  12    3.1778163400679e-09
  13    -0.027730680526994
  14    -1.2667183103702e-07
  15     0.010916639302643
  16     -0.19897354651215
  17     -0.14933955449756
  18       0.3653870486205
  19    -2.429877703614e-06
  20    -2.4124352635198e-06
  21      0.16966485640619
  22    -1.1660071601635e-06
  23    -1.1506351982817e-06
  24     0.016010266441076
  25    -9.3183399450016e-08
  26    1.2375553982934e-07
  27    -0.027730853470028
  28    -1.0943277565918e-07
  29     0.022196705529729
  30     0.037319135627132
  31      0.00921669372367
  32    -2.2943362994404e-06
  33    0.0013960370837602
  34       0.0222016895825
  35     0.037321339855205
  36    0.0092165237199701
  37    -0.0012076702447833
  38    -0.00069984062224216
  39     0.022198010039613
  40     0.037319685212801
  41    0.0092166483658588
  42    0.0012100063379408
  43    -0.00069615287538312
  44     0.022197085682694
  45      0.03731974814422
  46    -0.0092166785663896
  47    -0.00069613489738841
  48    0.0012101997729925
  49     0.022197574718954
  50     0.037320120379532
  51    -0.0092166549956512
  52    0.0013961208710801
  53    -2.2203024429353e-06
  54     0.022196904992677
  55     0.037319404498612
  56    -0.0092166752471256
  57    -0.00069997140576678
  58    -0.0012079662680968
 Sym= A
 Ene=               9
 Spin= Alpha
 Occup=    0.00000
   1       -1.056773027034
   2      -2.0715573070892
   3       6.8134727641984
   4    -0.019225725760524
   5    -0.0036419060411996
   6    -0.022108927274389
   7      0.94090435763393
   8    -0.0093115911279294
   9    -0.0034178132807689
  10    -0.021448160940493
  11     0.036547726284213
  12     0.037350222934497
  13      0.06234245761758
  14    0.0047319036800418
  15      0.11546678281939
  16      0.13146887236532
  17      -2.6036086833588
  18       0.2571249648116
  19    0.00049102806315872
  20    -0.0042548338664848
  21       1.5017889154853
  22    0.0013793932508092
  23    -0.010423209639104
  24     0.048370008845046
  25     0.006742966142482
  26    -0.0028982577228108
  27    -0.087583101216791
  28    0.00072189218459099
  29      0.13639006867382
  30    -0.072815093071718
  31    -0.057984730247324
  32    -0.0024970977736074
  33     0.010467369776039
  34      0.13374849817633
  35    -0.079359568150548
  36    -0.054972447876791
  37    -0.0061988593577373
  38    -0.0072638473853672
  39      0.13130957803034
  40    -0.078598048447656
  41    -0.055088954391511
  42     0.010597590999491
  43    -0.0018092175440362
  44     -0.59854112825182
  45     -0.79730781115941
  46    -0.054037895249592
  47    -0.027561841736829
  48     0.041546800891671
  49     -0.61123320071037
  50     -0.79377751696547
  51       -0.053996479194
  52     0.058050547674794
  53    -0.0036967623775936
  54     -0.65127477683611
  55      -0.8075868408661
  56    -0.059779446967302
  57    -0.037693590364614
  58    -0.066700464316663
 Sym= A
 Ene=              10
 Spin= Alpha
 Occup=    0.00000
   1      0.10499682068379
   2      0.12881786400872
   3      -1.9891917059245
   4     -0.18639783261077
   5     0.001648180245838
   6     0.006993328564559
   7      -1.0891297508492
   8    0.0085798715769998
   9     0.028547887741378
  10     0.031423431513901
  11     0.011564276277887
  12    0.00022581592876107
  13    -0.064092248539987
  14    0.00011747298830577
  15      -1.0142179497446
  16      -1.9926719309583
  17       6.4488494253408
  18     -0.12362671888087
  19     0.016020105526153
  20     0.040936158211671
  21     -0.11258626550431
  22    -0.026176232107086
  23    -0.034562560536406
  24     0.055642030040808
  25     0.052722505270094
  26    -0.026294613313213
  27    0.0070189564926801
  28    0.0004306468333431
  29     -0.69107822660532
  30     -0.92121578192468
  31     0.019884504104286
  32    0.0079396054847236
  33      0.10627832045589
  34     -0.63210002065688
  35     -0.94876776007986
  36     0.010854676657021
  37    -0.061059147467359
  38    -0.031052996932697
  39     -0.64424663242448
  40     -0.92738531882681
  41     0.017645429089653
  42     0.072329254935539
  43    -0.029251213427379
  44      0.11546923780377
  45    -0.013136145988787
  46     0.049418816895116
  47    0.0015556638703239
  48    0.0023465613232329
  49      0.11393129125588
  50    -0.0039295439358895
  51     0.051471320179742
  52    0.0036942020361196
  53    -0.0059578727080448
  54      0.12376156113671
  55    0.0047681904043698
  56     0.053509318681676
  57    -0.0036501137110556
  58    -0.0019800113657773
 Sym= A
 Ene=              11
 Spin= Alpha
 Occup=    0.00000
   1    -0.0080140768019603
   2    -0.015144755372082
   3     0.061942402732852
   4    -0.016927303510239
   5     0.083683843471926
   6     -0.41862457439591
   7       0.1078876323553
   8    -0.014760297306466
   9       2.9080337871793
  10     -0.16173487769528
  11     -0.74140193642237
  12       -0.309947454401
  13    -0.075746737774483
  14    -0.032398179186978
  15    0.0012193617313858
  16    -0.00035379821227379
  17    -0.084954557595337
  18     0.010950721822464
  19    -0.0071269446312636
  20    -0.019359138055634
  21     0.056517298101901
  22     -0.11520571289865
  23     -0.76378227653218
  24    -0.0086200779266907
  25    -0.045146454951138
  26     0.017962453534809
  27    -0.010470928194796
  28    -0.016750563358984
  29      0.14275338104462
  30      0.14317007414495
  31     0.057642015509868
  32    -0.0026405323486638
  33    -0.028216464797965
  34    -0.095337842573645
  35     -0.20782191250164
  36    -0.011464529784059
  37     -0.05863002340603
  38     0.042075157882733
  39    -0.040471512161403
  40     0.036400584773787
  41    -0.048174899018184
  42     0.032551158523741
  43     0.053920263776212
  44     -0.78777368812927
  45      -1.3044757979766
  46    -0.026241124282469
  47     -0.16704510682706
  48     0.085250142438312
  49    -0.083917513403706
  50     0.022558048095923
  51     -0.02685528886609
  52      0.03729253552857
  53     -0.26342897153935
  54      0.88344160793288
  55       1.3276849469197
  56     0.039435904163195
  57      0.24141476844045
  58     0.095528681963508
 Sym= A
 Ene=              12
 Spin= Alpha
 Occup=    0.00000
   1    0.0011810757245586
   2    0.0025815280966516
   3    0.0010879959965066
   4    -0.011537892514042
   5     -0.39544418448918
   6    -0.069698721020098
   7     0.037358914758146
   8       2.8897030116107
   9    0.0075811589633659
  10     -0.28150690341776
  11     0.021827526875642
  12      0.15153483476152
  13     -0.17449698995601
  14     -0.78383367990016
  15    0.0015506308663471
  16    0.0032794440634201
  17    -0.020948960444537
  18    -0.0019320360488428
  19    -0.014053072671923
  20    0.0088419964851585
  21     0.014601030277246
  22      -0.7457394372428
  23      0.12074114132929
  24     0.016606273734299
  25     0.014932815174101
  26     0.013633414399913
  27     0.011731696316452
  28    -0.054682440759686
  29    -0.033196663724364
  30     -0.14517958493056
  31     0.021505106460971
  32     0.072742862055673
  33     0.016901198406299
  34     -0.10203100568764
  35    -0.059124566415448
  36    -0.063120634930861
  37    0.0010224188858679
  38    -0.038686953988178
  39      0.13702483698638
  40      0.19383068979575
  41      0.04092870650729
  42    -0.010462997857057
  43     0.050686661806415
  44        0.556998073542
  45      0.76058665194028
  46     0.031063219580402
  47      -0.1389141260867
  48     -0.24203765675964
  49     -0.98541663514514
  50      -1.5064499158817
  51    -0.041627849259524
  52      0.22182475302708
  53    -0.029193334618064
  54      0.42964535409968
  55      0.76972517382239
  56    -0.0016555010475889
  57     -0.14209352881642
  58      0.17820427594626
 Sym= A
 Ene=              13
 Spin= Alpha
 Occup=    0.00000
   1    -0.052409999498157
   2    -0.083793756589342
   3      0.69877959558499
   4     -0.57915289132113
   5    -0.0046432681319102
   6     0.029912644418265
   7       3.3861168956239
   8     -0.02652668997876
   9    -0.096073203856316
  10     -0.19695349123302
  11    -0.0038829017115428
  12    -0.013613121118809
  13      0.37770358837848
  14     0.017319748817096
  15     0.023695483133573
  16    -0.021496097313098
  17      -2.2862838464927
  18      0.28952773185408
  19    -0.0010307986838621
  20    0.0036651245824806
  21       1.5663769772076
  22    0.0080679769778145
  23     0.032286247401663
  24     0.061985696871107
  25    -0.0042808037929486
  26    0.0013152660436183
  27      -0.1070191586849
  28    0.0025796029273558
  29     0.045186258113299
  30     -0.30441201031962
  31    -0.012436160238693
  32    0.0012473024736214
  33     0.028436303367613
  34     0.054435142461213
  35     -0.28937105324105
  36    -0.010811202391635
  37    -0.024054366390157
  38    -0.013990745249737
  39     0.052733027720836
  40     -0.29874728601312
  41     -0.01159250526162
  42     0.022521451454675
  43    -0.019112123439847
  44      0.23970165961017
  45      0.69593458152868
  46     -0.15172470606949
  47      0.05506003778254
  48    -0.082270985369396
  49      0.25934492475828
  50      0.67718327372183
  51     -0.14861002733949
  52     -0.11323955204384
  53    0.0098367527759023
  54      0.22047228614782
  55      0.61412540839146
  56     -0.15114216762783
  57     0.047848026154292
  58      0.09488845567617
 Sym= A
 Ene=              14
 Spin= Alpha
 Occup=    0.00000
   1    0.0047036758184913
   2    0.0075362037556013
   3    -0.098954802286802
   4    -0.0033618778196899
   5    -0.024236799802287
   6    -0.0079781419908384
   7    -0.063998137153184
   8     -0.78200047952126
   9     -0.10579055258771
  10     0.013770329899648
  11     0.015271531038988
  12     0.020487749098663
  13    0.0085600972108825
  14     0.039102544569185
  15    -0.014316164143942
  16    -0.027406280167041
  17      0.11124932255321
  18     0.026428262509789
  19     -0.42050030187866
  20     0.077907893365644
  21      -0.1139365648201
  22       2.9449276957738
  23    -0.072347353335981
  24      0.12684504882965
  25    0.0095196776395424
  26     -0.34403109340682
  27     0.058200332497608
  28       0.7207473945684
  29    -0.057190235948936
  30      0.04853655375157
  31     0.026019032841538
  32      -0.2572710972467
  33     0.026938603663971
  34      0.86807998706262
  35       1.3208409105596
  36    -0.038649092700381
  37     0.091451131762401
  38       0.2346477243399
  39     -0.82944645536701
  40      -1.3434117905145
  41       0.0412132243641
  42     0.094186678889443
  43     -0.16951099950006
  44    -0.041550239100408
  45      0.03218641431751
  46     0.050064184675284
  47     0.053418849396355
  48     0.032378120531053
  49      0.14803633245523
  50      0.14873135646572
  51    -0.055751324253987
  52    -0.028206521499792
  53    -0.004283906231923
  54    -0.095759692707805
  55     -0.21179469613417
  56    0.0097704158681981
  57     0.042895724593892
  58    -0.059242310066817
 Sym= A
 Ene=              15
 Spin= Alpha
 Occup=    0.00000
   1    0.0037240473489433
   2    0.0082894254938854
   3    -0.019859901716488
   4    0.0074289504594658
   5    0.0025817407326661
   6    -0.019104191776563
   7    -0.011480818804485
   8     0.087173291723394
   9     -0.76359559090481
  10    -0.020280554829651
  11     0.043938385957586
  12    0.0088203571776665
  13    -0.0055332580862184
  14    -0.024494831389688
  15    -0.0063871566903335
  16    -0.012371649155017
  17     0.051382925629179
  18     0.011656898264742
  19     -0.12008939376058
  20     -0.39972109192976
  21    -0.015055504955054
  22     0.071532665129171
  23        2.908598779057
  24      0.32785718228399
  25      0.74219311130175
  26      0.21892608196535
  27      0.15575558595146
  28    -0.060981606225252
  29     -0.99855777226136
  30      -1.5269139630365
  31     0.052321499795281
  32    -0.044760982676912
  33      0.21971153785174