[Molden Format]
made by pyscf v[2.0.1]
[Atoms] (AU)
C   1   6     0.00000000000000     0.00000000000000     0.00000000000000
C   2   6     2.89040035821050     0.00000000000000     0.00000000000000
H   3   1     3.65380793584534     0.00000000000000     1.93990930394644
H   4   1     3.65380793584534    -1.68001073825540    -0.96995465197322
H   5   1     3.65380793584534     1.68001073825540    -0.96995465197322
H   6   1    -0.76340757763484    -1.68001073825540     0.96995465197322
H   7   1    -0.76340757763484     1.68001073825540     0.96995465197322
H   8   1    -0.76340757763484     0.00000000000000    -1.93990930394644
[GTO]
1 0
 s    8 1.00
                  6665  0.00069158396281299
                  1000  0.0053257961529341
                   228   0.027060721042034
                 64.71    0.10165684614077
                 21.06     0.2745748236174
                 7.495    0.44829431892377
                 2.797    0.28490261071525
                0.5215   0.015194859206082
 s    8 1.00
                  6665  -0.00029326965268655
                  1000  -0.0023180354739745
                   228  -0.011499786038565
                 64.71  -0.046826727009787
                 21.06   -0.12846616875047
                 7.495   -0.30126627246289
                 2.797   -0.25563070233011
                0.5215      1.093793361012
 s    1 1.00
                0.1596                   1
 p    3 1.00
                 9.439   0.056979251590039
                 2.002    0.31320721150073
                0.5456    0.76037674173753
 p    1 1.00
                0.1517                   1
 d    1 1.00
                  0.55                   1

2 0
 s    8 1.00
                  6665  0.00069158396281299
                  1000  0.0053257961529341
                   228   0.027060721042034
                 64.71    0.10165684614077
                 21.06     0.2745748236174
                 7.495    0.44829431892377
                 2.797    0.28490261071525
                0.5215   0.015194859206082
 s    8 1.00
                  6665  -0.00029326965268655
                  1000  -0.0023180354739745
                   228  -0.011499786038565
                 64.71  -0.046826727009787
                 21.06   -0.12846616875047
                 7.495   -0.30126627246289
                 2.797   -0.25563070233011
                0.5215      1.093793361012
 s    1 1.00
                0.1596                   1
 p    3 1.00
                 9.439   0.056979251590039
                 2.002    0.31320721150073
                0.5456    0.76037674173753
 p    1 1.00
                0.1517                   1
 d    1 1.00
                  0.55                   1

3 0
 s    3 1.00
                 13.01   0.033498726389998
                 1.962    0.23480080117413
                0.4446     0.8136829578829
 s    1 1.00
                 0.122                   1
 p    1 1.00
                 0.727                   1

4 0
 s    3 1.00
                 13.01   0.033498726389998
                 1.962    0.23480080117413
                0.4446     0.8136829578829
 s    1 1.00
                 0.122                   1
 p    1 1.00
                 0.727                   1

5 0
 s    3 1.00
                 13.01   0.033498726389998
                 1.962    0.23480080117413
                0.4446     0.8136829578829
 s    1 1.00
                 0.122                   1
 p    1 1.00
                 0.727                   1

6 0
 s    3 1.00
                 13.01   0.033498726389998
                 1.962    0.23480080117413
                0.4446     0.8136829578829
 s    1 1.00
                 0.122                   1
 p    1 1.00
                 0.727                   1

7 0
 s    3 1.00
                 13.01   0.033498726389998
                 1.962    0.23480080117413
                0.4446     0.8136829578829
 s    1 1.00
                 0.122                   1
 p    1 1.00
                 0.727                   1

8 0
 s    3 1.00
                 13.01   0.033498726389998
                 1.962    0.23480080117413
                0.4446     0.8136829578829
 s    1 1.00
                 0.122                   1
 p    1 1.00
                 0.727                   1

[5d]
[7f]
[9g]

[MO]
 Sym= A
 Ene=               0
 Spin= Alpha
 Occup=    1.00000
   1    -0.00012380554189722
   2    0.00017146850579591
   3    0.0023204060175781
   4    0.00031299563169022
   5    -2.6691591948162e-07
   6    -5.0131328039399e-08
   7    0.0011902666086715
   8    -1.2181615980083e-07
   9    -2.5292840119801e-08
  10    9.731396783862e-05
  11    5.6088202256781e-09
  12    -1.1730337531765e-08
  13    -0.00016854583243827
  14    1.9934377843432e-10
  15       1.0022666280642
  16    0.0054668883807932
  17    -0.0088528964342968
  18    0.0002145850628749
  19    -2.2150793304569e-07
  20    7.3683596814623e-08
  21    0.00079279217717802
  22    -9.9353038156697e-08
  23    3.5957831955376e-08
  24    8.886824805626e-05
  25    5.4327790081948e-09
  26    8.8346228643043e-09
  27    -0.00015391543334461
  28    3.8500614736069e-09
  29    0.00047793156432813
  30    0.0012581639310551
  31    8.874478929764e-05
  32    -6.3135168278295e-09
  33    0.00036969082214825
  34    0.00047797945182561
  35    0.0012581609584784
  36    8.8743374795473e-05
  37    -0.00032016029072418
  38    -0.00018483862976549
  39    0.00047768014875127
  40    0.0012580651488476
  41    8.8753275758587e-05
  42    0.00032017268283995
  43    -0.00018485307457806
  44    -9.4656932660556e-05
  45    0.00012028311530102
  46    4.8748368828885e-05
  47    1.6508248029824e-05
  48    -9.5372148891318e-06
  49    -9.5030525069331e-05
  50    0.00012014829360194
  51    4.8735869207688e-05
  52    -1.6493953321517e-05
  53    -9.5199649408417e-06
  54    -9.4770065331092e-05
  55    0.00012025695054564
  56    4.874471953619e-05
  57    -7.7915392757642e-09
  58    1.9057455320073e-05
 Sym= A
 Ene=               1
 Spin= Alpha
 Occup=    1.00000
   1       1.0022666298312
   2    0.0054668802178371
   3    -0.0088529132182917
   4    -0.00021477211592397
   5    4.4007556768993e-07
   6    3.3699620267805e-07
   7    -0.00079287816898344
   8    2.079705189941e-07
   9    1.599086576566e-07
  10    8.8858648277039e-05
  11    -1.4352599507465e-08
  12    2.3028041590227e-08
  13    -0.00015394363581953
  14    -1.6779561263974e-08
  15    -0.00012379828860188
  16    0.00017124765170908
  17    0.0023202597568322
  18    -0.0003129122347253
  19    2.4797135406603e-08
  20    -1.2119033584366e-08
  21    -0.0011902292146513
  22    2.5341941685403e-09
  23    -1.279703993416e-08
  24    9.7310943353959e-05
  25    -1.6780889447646e-08
  26    3.4546961533384e-09
  27    -0.00016855608259395
  28    -2.0254246108004e-08
  29    -9.4935035677416e-05
  30    0.00012018550120274
  31    -4.8735207707622e-05
  32    -4.6157618937808e-11
  33    -1.9045243542521e-05
  34    -9.4871779843243e-05
  35    0.00012028327139608
  36    -4.8738018673966e-05
  37    1.6491170550121e-05
  38    9.5202176024407e-06
  39    -9.4891261468266e-05
  40    0.00012021463438838
  41    -4.8736795897574e-05
  42    -1.6495170485526e-05
  43    9.5224736679959e-06
  44    0.0004777367853124
  45    0.0012580743636479
  46    -8.8755539225669e-05
  47    -0.0003201601090802
  48    0.00018486267553681
  49    0.00047839671629357
  50    0.0012583625112483
  51    -8.8732995991497e-05
  52    0.00032013870899504
  53    0.00018483476512091
  54    0.00047762562078503
  55    0.0012580221327912
  56    -8.8759370828527e-05
  57    1.3471086639297e-08
  58    -0.00036970325720073
 Sym= A
 Ene=               2
 Spin= Alpha
 Occup=    1.00000
   1    -0.0024548872924368
   2    -0.020538339758913
   3    -0.014488090668567
   4    -0.025111994737517
   5    0.0014473879512587
   6    -0.00083447868375345
   7    -0.014632372359087
   8    -0.0055851649201613
   9    0.0032250422887165
  10    -0.0037941547541372
  11    -0.0083225854626256
  12    -0.0031681023506671
  13    0.0029134481396135
  14     0.014415493859736
  15     -0.01334229749579
  16      0.18318008185981
  17      0.10960735063926
  18      0.12440671917982
  19      0.29951808131654
  20     -0.17292163775876
  21     0.061175647188513
  22      0.14186903237058
  23    -0.081905681631031
  24    -0.0042578884127642
  25     -0.00702384769374
  26    -0.015840175963038
  27    -0.010915254715396
  28     0.012165931484198
  29    -0.020079259237015
  30    -0.037487817889993
  31    0.0025517691374182
  32     0.009196824749577
  33    -0.0078468700493679
  34    -0.020085923418838
  35    -0.037490623497296
  36    0.0025519958201291
  37     0.011393640403295
  38    -0.0040412993526947
  39      0.43106023400829
  40      0.16160963138477
  41     -0.01287875273588
  42    -0.025860390089802
  43     0.014930660962826
  44     0.024196774738129
  45     0.043269423180273
  46    -0.00030566023839283
  47    -0.0011279775124996
  48    0.00065126453322764
  49    -0.012312989339269
  50    -0.013716424937079
  51    -0.0019332288899652
  52    -0.0008496220495727
  53    9.2998235592665e-05
  54    -0.012313935134175
  55    -0.013716227608603
  56    -0.001933255542176
  57    -0.00050532698520744
  58    0.00068919225833804
 Sym= A
 Ene=               3
 Spin= Alpha
 Occup=    1.00000
   1    -0.013343951101455
   2       0.1831802126213
   3      0.10960736004849
   4     -0.12440828411783
   5      0.29951253333175
   6      0.17292984076833
   7    -0.061176396576264
   8      0.14186644157379
   9     0.081909529699872
  10    -0.0042581980867001
  11    -0.0070240946754088
  12     0.015839901724864
  13    -0.010915547334359
  14    -0.012165791651048
  15    -0.0024546008588518
  16    -0.020538300656139
  17    -0.014488164883284
  18     0.025113511036847
  19    0.0014455915720228
  20    0.0008363022582941
  21     0.014633102298016
  22    -0.0055858998149753
  23    -0.0032243500969652
  24    -0.0037941017738496
  25    -0.0083229073878632
  26    0.0031681373450497
  27    0.0029133717185958
  28    -0.014415299131236
  29    -0.012312439321466
  30    -0.013716219507975
  31     0.001933249193861
  32    -0.00050537197605685
  33    -0.00068934960347385
  34     0.024197803605649
  35     0.043269815663408
  36    0.00030566438893639
  37    -0.0011279371679897
  38    -0.00065117431215051
  39     -0.01231395070081
  40    -0.013716154852574
  41     0.001933294107297
  42    -0.0008495403470479
  43    -9.3030429362027e-05
  44    -0.020077773918515
  45    -0.037487243087979
  46    -0.0025517576162032
  47      0.01139409188128
  48     0.004041190815888
  49      0.43106025549846
  50      0.16160966622035
  51     0.012878715172012
  52     -0.02586056232863
  53     -0.01493041532461
  54    -0.020085674524435
  55    -0.037490533650999
  56    -0.0025520260262661
  57    0.0091966576445888
  58     0.007846573981614
 Sym= A
 Ene=               4
 Spin= Alpha
 Occup=    1.00000
   1    -0.0024548104849283
   2    -0.020539196199427
   3    -0.014488986908793
   4     -0.02511767848378
   5    -4.3138049706694e-06
   6    0.0016717472473794
   7    -0.014635057767991
   8    -1.9363974249752e-06
   9    -0.0064489076197384
  10    0.0009581649023601
  11     0.016645391121567
  12    -1.7284079147066e-07
  13    0.0056567054775815
  14    -7.1459242207499e-08
  15    -0.013342839408206
  16      0.18317843864615
  17      0.10960598462379
  18      0.12441202079696
  19    -5.125282486757e-06
  20      0.34585019033755
  21     0.061178152334861
  22    -2.337831601017e-06
  23      0.16381458080862
  24     0.019502175234245
  25     0.014047843046143
  26    2.2458955619147e-07
  27    0.0028021808603153
  28    -9.0690928021554e-10
  29      0.43106032338154
  30      0.16160982207261
  31    -0.012878612305578
  32    -1.4950111520889e-07
  33    -0.029861113907574
  34     -0.02007763436738
  35    -0.037487051877598
  36    0.0025518579967791
  37    0.0021972838368306
  38     0.011888158915368
  39    -0.020084800229535
  40    -0.037489629011456
  41    0.0025520976692859
  42    -0.0021970089668586
  43     0.011887827590097
  44    -0.012308612553428
  45    -0.013714395844653
  46    -0.0019332239147822
  47    0.00034449053578912
  48    -0.00078244393903221
  49    -0.012314450804967
  50    -0.013716275801222
  51    -0.0019334171471616
  52    -0.00034424966669331
  53    -0.00078216274381206
  54     0.024197256806183
  55     0.043269667915914
  56    -0.00030578908332083
  57    -1.2308765615274e-07
  58    -0.0013024090833482
 Sym= A
 Ene=               5
 Spin= Alpha
 Occup=    1.00000
   1    -0.013342382818288
   2      0.18317890805224
   3      0.10960644957529
   4      -0.1244091858873
   5     -0.29951862845068
   6      0.17292041959181
   7    -0.061176795001046
   8     -0.14186932353444
   9     0.081905210032532
  10    -0.0042577735851755
  11    -0.0070240414910104
  12    -0.015840221461168
  13     -0.01091543382493
  14     0.012166027593382
  15    -0.0024553930346113
  16    -0.020539649967995
  17    -0.014489068679605
  18     0.025114395837261
  19    -0.0014458617095908
  20    0.00082943875057941
  21     0.014633488678321
  22    0.0055858994457301
  23    -0.0032274044973369
  24    -0.003794271983498
  25    -0.0083227324838112
  26    -0.0031681890738686
  27    0.0029131439731177
  28     0.014415582650595
  29    -0.012318082642756
  30    -0.013717781475515
  31    0.0019334623115725
  32    0.00050537486691386
  33    -0.00068896556186468
  34    -0.012311881356505
  35    -0.013715838370744
  36    0.0019332575617612
  37    0.00084974015524409
  38    -9.3110253659835e-05
  39     0.024200253237117
  40     0.043271131577249
  41    0.00030560712906909
  42    0.0011277892210863
  43    -0.00065128074050571
  44      0.43106063531911
  45      0.16161027159328
  46     0.012878703102261
  47     0.025860357083726
  48    -0.014930681390514
  49    -0.020086543719945
  50    -0.037490642789734
  51    -0.0025520823300577
  52    -0.011393590708597
  53    0.0040413111996315
  54     -0.02007834286442
  55    -0.037487649637421
  56    -0.0025518076348484
  57    -0.0091968443559114
  58    0.0078469413672551
 Sym= A
 Ene=               6
 Spin= Alpha
 Occup=    1.00000
   1    -0.0024547589516894
   2    -0.020539424348097
   3    -0.014488984970608
   4    -0.025115233550214
   5    -0.0014441326876962
   6    -0.0008358678744417
   7    -0.014633884548075
   8    0.0055866024370711
   9    0.0032245679453357
  10    -0.0037940356664169
  11    -0.0083229529593872
  12    0.0031682205064572
  13    0.0029131987510674
  14     -0.01441538518809
  15    -0.013342948434996
  16      0.18317836385187
  17       0.1096060821662
  18      0.12440965092215
  19     -0.29951308083153
  20     -0.17293041656417
  21      0.06117701403407
  22     -0.14186673150066
  23    -0.081909811582745
  24    -0.0042581582158955
  25    -0.0070241391899508
  26     0.015839946512659
  27    -0.010915686766945
  28    -0.012165884520034
  29    -0.020086669062054
  30     -0.03749073672543
  31     0.002552103848607
  32    -0.0091966771385136
  33    -0.0078464759364777
  34      0.43106056769016
  35      0.16161019122407
  36    -0.012878683447379
  37     0.025860523666609
  38     0.014930385775415
  39     -0.02007847518871
  40     -0.03748736479658
  41    0.0025518258531989
  42    -0.011394036083966
  43    -0.004041252767794
  44    -0.012314868589298
  45    -0.013716427608917
  46    -0.0019333706721079
  47    0.0008495025488567
  48    9.3093101312547e-05
  49     0.024199154782236
  50     0.043270619970666
  51    -0.00030566264255468
  52      0.00112790803406
  53    0.00065114543989786
  54    -0.012312853955379
  55    -0.013716300626494
  56    -0.0019333088279263
  57     0.000505417789602
  58    0.00068931290250493
 Sym= A
 Ene=               7
 Spin= Alpha
 Occup=    1.00000
   1    -0.013342147806902
   2      0.18317866533804
   3      0.10960628673875
   4     -0.12440928939687
   5    5.0885170463809e-06
   6     -0.34585106013981
   7    -0.061176858271988
   8    2.3883163976426e-06
   9     -0.16381506272832
  10     0.019502146894884
  11     0.014048039793324
  12    2.5777801467902e-07
  13    0.0028023943141016
  14    -1.5614007166709e-07
  15    -0.0024551701638501
  16    -0.020538582357978
  17    -0.014488434161262
  18     0.025115137895507
  19    1.0705427109146e-06
  20    -0.0016684113024496
  21     0.014633851361996
  22    4.0064302991845e-07
  23      0.00645050626378
  24     0.000958237812819
  25     0.016645569435597
  26    -1.5476103854019e-09
  27    0.0056569512341421
  28    -2.0217588177805e-07
  29     0.024199685774603
  30     0.043270721394178
  31    0.0003056373808493
  32    2.3540683618223e-08
  33    0.0013023116805946
  34     -0.01231403128894
  35    -0.013716215277298
  36    0.0019333351585668
  37    0.0003441876426142
  38    0.00078228846537456
  39    -0.012313075444517
  40    -0.013716487150852
  41    0.0019333088946072
  42    -0.0003442717275111
  43    0.00078236419425265
  44    -0.020086273688589
  45    -0.037490654056097
  46    -0.0025520825985272
  47    0.0021969341366813
  48    -0.011887814440419
  49     -0.02007874427279
  50    -0.037487473904967
  51    -0.0025518263895168
  52    -0.0021971865745428
  53    -0.011888138384744
  54      0.43106053996972
  55      0.16161015891912
  56     0.012878690891127
  57     1.54325083645e-07
  58     0.029861068125565
 Sym= A
 Ene=               8
 Spin= Alpha
 Occup=    1.00000
   1    -0.010944708485153
   2      0.19885619582942
   3       0.1495462546974
   4      0.36548188716346
   5    -1.1667529623666e-06
   6    -6.8179834820778e-07
   7      0.16964285227735
   8    -5.0264213787961e-07
   9    -3.8176303485952e-07
  10    -0.015940000516907
  11    1.6347286184367e-07
  12    -3.5833336211043e-08
  13     0.027609023756837
  14    -6.8018334421676e-08
  15    -0.010945195012675
  16      0.19885707049827
  17      0.14954679381904
  18     -0.36548145993903
  19    -2.393773575587e-06
  20    2.8063375479127e-06
  21     -0.16964265278205
  22    -1.1096435789183e-06
  23    1.3438017009982e-06
  24    -0.015939897765684
  25    1.4759302221348e-07
  26     1.14081717788e-07
  27     0.027609024692851
  28    -4.1405226897907e-08
  29    -0.022177679719515
  30     -0.03739399985806
  31    -0.0091937768809579
  32    -7.1381384782147e-08
  33    -0.001374696136412
  34    -0.022179690027499
  35    -0.037395048051539
  36    -0.0091937066293661
  37     0.001190393983723
  38    0.0006874029451164
  39    -0.022183146402229
  40    -0.037396415777685
  41    -0.0091935898705064
  42    -0.0011902710064708
  43    0.0006872495200432
  44    -0.022180410107575
  45    -0.037395386637167
  46    0.0091936824424577
  47    0.0011903805455341
  48    -0.00068731077362403
  49     -0.02218185902608
  50    -0.037395700174047
  51    0.0091936359048823
  52    -0.0011903089803967
  53    -0.00068723314930088
  54    -0.022179930885659
  55    -0.037394680143062
  56     0.009193703421129
  57    -3.1442067070017e-08
  58    0.0013745328661818
 Sym= A
 Ene=               9
 Spin= Alpha
 Occup=    0.00000
   1      -1.0279441987876
   2      -2.0194606419648
   3       6.5254356318347
   4      0.11796945245911
   5    -0.041863545355042
   6    -0.0029362973875967
   7      0.27794829946755
   8     0.047125506888483
   9    -0.032167922841025
  10    -0.013970962159409
  11     0.016545685224878
  12    -0.049485269532819
  13     0.061605325227834
  14     0.045180770957859
  15     0.097193173548887
  16      0.10845902746511
  17      -2.0738201590876
  18      0.22363057963207
  19    -0.0077255115573805
  20    -0.001016708135811
  21       1.1900621877277
  22    -0.027426145226176
  23    0.0039346357727897
  24     0.047390750325361
  25    0.0016766789086169
  26    0.0059548785982062
  27     -0.08494692923382
  28    0.0099806207823498
  29      0.11051104265238
  30    -0.030995382292573
  31    -0.048673049305166
  32    0.0010179212428889
  33    0.0061462863505967
  34      0.10417914020471
  35    -0.036795182955931
  36    -0.044927800870158
  37    -0.004366645952591
  38    -0.0039795567049575
  39       0.1167413119656
  40    -0.027793781264491
  41     -0.04811569311438
  42    0.0052999545158415
  43    -0.0033418786784354
  44     -0.65190078991769
  45     -0.87878831226898
  46    -0.015310769653531
  47    -0.079723587890833
  48     0.040968608867355
  49     -0.60164264854458
  50      -0.9088995023187
  51    -0.008507867173869
  52     0.044311436915765
  53     0.031804157921485
  54     -0.65762669785261
  55     -0.92097757439017
  56    -0.015435145891417
  57    -0.009769203417696
  58    -0.082533191629344
 Sym= A
 Ene=              10
 Spin= Alpha
 Occup=    0.00000
   1      0.10366192781478
   2      0.11800134398273
   3      -2.2455384799513
   4     -0.23262215270971
   5    0.0057662208147416
   6    -0.0077940009412862
   7      -1.3044260852039
   8     0.022910655612803
   9    -0.034142555805377
  10     0.053648715997373
  11    -0.0098707935898484
  12    0.0026700670394015
  13    -0.082502386544493
  14    0.0080924713799836
  15      -1.0411989933901
  16      -2.0440557248633
  17       6.6462529108691
  18    -0.067267132612977
  19     0.026362656557033
  20    -0.043554433618557
  21     -0.50856519193439
  22    -0.051251665713633
  23     0.081066234432809
  24     -0.05669509131455
  25    -0.036468564117024
  26    -0.014647647550476
  27     0.024922133738944
  28     0.030379673392899
  29     -0.62238484705962
  30     -0.90497069166526
  31      0.02784523899065
  32    0.0043419809142601
  33      0.05480404547432
  34     -0.63632222594345
  35     -0.87109100451939
  36      0.03146942269124
  37    -0.054928207961016
  38    -0.045136396419115
  39     -0.64894264030202
  40     -0.83244074374721
  41     0.029900167370736
  42     0.072704115226362
  43    -0.050384580559301
  44      0.12393296450535
  45    -0.046707704634236
  46     0.050097529421674
  47    -0.0071239865477786
  48    0.0052528375347202
  49      0.11554003184767
  50    -0.053375608008742
  51     0.048770406991071
  52    0.0055459466709183
  53    0.0059302010229879
  54      0.10777562518715
  55    -0.057674971358905
  56      0.04823596374344
  57    -0.0013756386162518
  58    -0.0078286921921206
 Sym= A
 Ene=              11
 Spin= Alpha
 Occup=    0.00000
   1    0.0058519511640198
   2     0.011385851170422
   3    -0.042694491753661
   4    0.0060289784255838
   5     -0.35096169980247
   6    -0.015347167774148
   7    -0.013691088143692
   8       2.9125024453359
   9     0.014342028607182
  10     0.012719419765732
  11     0.014297429988995
  12      0.51449490507966
  13     0.021581220145983
  14     -0.78079480133694
  15    -0.0019976026320593
  16    -0.0040367788991887
  17     0.018588736985717
  18    0.0022443560733563
  19    -0.0062903913818211
  20    -0.0024677989706429
  21    -0.011389206656921
  22     -0.60234988421965
  23    -0.0088719664885174
  24    -0.0011380901977922
  25    0.0029349406617163
  26    -0.012378785081847
  27    -0.0028684767693031
  28    -0.035783252453677
  29    0.0016302823476904
  30    0.0031256936108576
  31    -0.0001816823739963
  32     0.072018286985239
  33    -0.00020585718721752
  34    -0.084322125687422
  35    0.0095722980502617
  36     -0.07328802567381
  37    0.0090554404496013
  38     -0.03610984283364
  39     0.079723015678734
  40    -0.0082655122134636
  41     0.074868103009811
  42    0.0090215044734565
  43     0.036613258279401
  44      0.94543900430445
  45       1.3209214631399
  46      0.06462914541022
  47      0.13492559919994
  48     -0.21253326469377
  49     -0.92170836379568
  50      -1.3187603276191
  51    -0.056521035845747
  52      0.13078635280495
  53      0.20146965834705
  54    -0.0062392039847609
  55    0.0084365070145358
  56    0.00057648495096966
  57     -0.22568192864432
  58    -0.0068144468119683
 Sym= A
 Ene=              12
 Spin= Alpha
 Occup=    0.00000
   1    -0.019476549193836
   2     -0.03766783523558
   3      0.13655277789181
   4     -0.01725330174055
   5    -0.011979436457611
   6     -0.34607885995321
   7      0.10465736091842
   8    0.0018022097472148
   9       2.9172215244585
  10     -0.46645366822898
  11     -0.77576143982869
  12    -0.023681570314396
  13     -0.26162328923004
  14     0.011042032637235
  15     0.003120981425049
  16     0.003053830425427
  17      -0.1035636917605
  18     0.010213630739399
  19    -0.0016195539142247
  20    -0.0069377745182229
  21     0.066465625283067
  22    -0.0046185197385549
  23     -0.60376533702586
  24     0.014057368955554
  25    -0.033846284073462
  26    0.0023236709723671
  27    0.0036663960023234
  28    0.0016775334055197
  29     0.097639417508831
  30    -0.019119506598618
  31     0.084263357373594
  32    -0.00011934944536894
  33    -0.010399837599476
  34    -0.045020745663683
  35    -0.0053658084720372
  36    -0.043468666910404
  37    -0.037276007727001
  38     0.050943027827185
  39    -0.041691571829657
  40    -0.0034616870636694
  41    -0.044690789658854
  42     0.036944101663054
  43     0.050996738222548
  44     -0.56108241197413
  45     -0.76120651010487
  46    -0.045484773854809
  47     -0.21121050578117
  48     -0.10165328973566
  49     -0.53645080843777
  50     -0.75921426344536
  51    -0.040067419805794
  52      0.19865703472912
  53     -0.10429962072291
  54       1.0806805155139
  55       1.5303217891274
  56     0.068179522906353
  57    -0.0039863123347339
  58      0.25638722027572
 Sym= A
 Ene=              13
 Spin= Alpha
 Occup=    0.00000
   1    -0.044526596294889
   2    -0.010244171900838
   3       2.5987149333479
   4      0.30265090336929
   5    0.0011479203791058
   6    -0.0038124193472243
   7       1.7349000401717
   8    0.0083191076120603
   9     0.011551321646513
  10     -0.05823176429573
  11    -0.0068107448263647
  12    0.0005869636354241
  13      0.10831075347725
  14    0.0012479986247304
  15      0.18710053784112
  16      0.34749348695575
  17      -1.5795833409214
  18     -0.59033452252175
  19    0.0079198228049612
  20    -0.0071130189792564
  21       3.4638419849294
  22    -0.028415121210677
  23       -0.101182317343
  24      0.14656162097833
  25    -0.057686417069048
  26    -0.001276085109015
  27     -0.35168860820455
  28    0.0007576819526461
  29     -0.08282098067618
  30     -0.49124666298573
  31     -0.16942286089932
  32    0.0026502358172074
  33     0.073085116667023
  34     -0.18024904726999
  35     -0.58852443609689
  36     -0.16137033662708
  37    -0.092353376847403
  38    -0.050346578996167
  39     -0.17207642788039
  40     -0.56441903569426
  41     -0.16190556100614
  42      0.09471567162274
  43     -0.04865042785188
  44     -0.06966665611689
  45      0.30411823038856
  46    -0.018483548408631
  47     0.024568292243253
  48    -0.017175915119334
  49    -0.072495716230225
  50      0.30296051872952
  51    -0.017813868591266
  52    -0.024915879852363
  53    -0.016563377308651
  54    -0.070719912022692
  55      0.29874545812287
  56    -0.025168447139329
  57    -0.00070418047134986
  58     0.030850202198118
 Sym= A
 Ene=              14
 Spin= Alpha
 Occup=    0.00000
   1    0.0012404070085168
   2    0.0029278752169203
   3    0.0060278448896688
   4    0.0035362257699658
   5    -0.0072164863066311
   6    0.00071366335386623
   7    0.0056055389546559
   8     -0.60433059109591
   9    0.0016967108088706
  10    -0.001623578297015
  11    0.00092752203893511
  12     0.016264644567112
  13     0.001407633078265
  14      0.03224978850506
  15    -0.0066378398508018
  16    -0.013183224123797
  17     0.041421225768703
  18    -0.0031013480568865
  19     -0.33826099319414
  20    0.0038763406648356
  21     0.027000412349397
  22       2.9227349380416
  23    0.00010646663542137
  24     0.011666242182662
  25    0.0053627566788172
  26     -0.56171170331691
  27    -0.0064407918471017
  28      0.77345270996721
  29    -0.013280411698563
  30    -0.013215690650978
  31    0.00085277661517361
  32     -0.21585901480404
  33    0.0044003740312277
  34      0.94574681485054
  35       1.3138561703637
  36    -0.068604878874933
  37      0.13966450216439
  38      0.20613990838852
  39     -0.95726938585163
  40      -1.3378812604629
  41     0.068106621784109
  42      0.14142436565129
  43     -0.20539795578104
  44    -0.080290095697316
  45     0.010175344997393
  46     0.074438930914429
  47      0.01035925469045
  48     0.036107006221364
  49     0.080476431598481
  50    -0.0063950200918673
  51    -0.074149748676256
  52    0.0099857210011828
  53    -0.036257507097082
  54    0.0010083572817727
  55    0.0026420670286346
  56    0.00061544853009907
  57     0.072841810390585
  58    0.00017846218600789
 Sym= A
 Ene=              15
 Spin= Alpha
 Occup=    0.00000
   1    -0.0055238840992377
   2    -0.0081050423310243
   3      0.12995812985126
   4     0.007069494858856
   5    1.9067266751167e-05
   6     0.003850383504619
   7     0.084087508658602
   8    0.00071465422179656
   9     -0.56976860895114
  10    -0.012599210951115
  11     0.052188948018219
  12    -0.00033906715735697
  13    -0.0060306263889625
  14    0.00013465237085102
  15     0.021163249523951
  16     0.040690503980383
  17     -0.15766295815063
  18    -0.030359560218294
  19    -0.00077660061230988
  20     -0.32127150869169
  21      0.14282208526944
  22    -0.004107269953859
  23       2.8523734586367
  24      0.43526424216004
  25      0.84499726680043
  26    0.0044110977944243
  27      0.26210264133498
  28    -0.00079773276202939
  29      -1.0775819738673
  30      -1.5070680775195
  31     0.051483591540969
  32    -0.00048928327809902