[Molden Format]
made by pyscf v[2.0.1]
[Atoms] (AU)
C   1   6     0.00000000000000     0.00000000000000     0.00000000000000
C   2   6     2.89040035821050     0.00000000000000     0.00000000000000
H   3   1     3.65380793584534     0.00000000000000     1.93990930394644
H   4   1     3.65380793584534    -1.68001073825540    -0.96995465197322
H   5   1     3.65380793584534     1.68001073825540    -0.96995465197322
H   6   1    -0.76340757763484    -1.93990930394644     0.00000000000000
H   7   1    -0.76340757763484     0.96995465197322     1.68001073825540
H   8   1    -0.76340757763484     0.96995465197322    -1.68001073825540
[GTO]
1 0
 s    8 1.00
                  6665  0.00069158396281299
                  1000  0.0053257961529341
                   228   0.027060721042034
                 64.71    0.10165684614077
                 21.06     0.2745748236174
                 7.495    0.44829431892377
                 2.797    0.28490261071525
                0.5215   0.015194859206082
 s    8 1.00
                  6665  -0.00029326965268655
                  1000  -0.0023180354739745
                   228  -0.011499786038565
                 64.71  -0.046826727009787
                 21.06   -0.12846616875047
                 7.495   -0.30126627246289
                 2.797   -0.25563070233011
                0.5215      1.093793361012
 s    1 1.00
                0.1596                   1
 p    3 1.00
                 9.439   0.056979251590039
                 2.002    0.31320721150073
                0.5456    0.76037674173753
 p    1 1.00
                0.1517                   1
 d    1 1.00
                  0.55                   1

2 0
 s    8 1.00
                  6665  0.00069158396281299
                  1000  0.0053257961529341
                   228   0.027060721042034
                 64.71    0.10165684614077
                 21.06     0.2745748236174
                 7.495    0.44829431892377
                 2.797    0.28490261071525
                0.5215   0.015194859206082
 s    8 1.00
                  6665  -0.00029326965268655
                  1000  -0.0023180354739745
                   228  -0.011499786038565
                 64.71  -0.046826727009787
                 21.06   -0.12846616875047
                 7.495   -0.30126627246289
                 2.797   -0.25563070233011
                0.5215      1.093793361012
 s    1 1.00
                0.1596                   1
 p    3 1.00
                 9.439   0.056979251590039
                 2.002    0.31320721150073
                0.5456    0.76037674173753
 p    1 1.00
                0.1517                   1
 d    1 1.00
                  0.55                   1

3 0
 s    3 1.00
                 13.01   0.033498726389998
                 1.962    0.23480080117413
                0.4446     0.8136829578829
 s    1 1.00
                 0.122                   1
 p    1 1.00
                 0.727                   1

4 0
 s    3 1.00
                 13.01   0.033498726389998
                 1.962    0.23480080117413
                0.4446     0.8136829578829
 s    1 1.00
                 0.122                   1
 p    1 1.00
                 0.727                   1

5 0
 s    3 1.00
                 13.01   0.033498726389998
                 1.962    0.23480080117413
                0.4446     0.8136829578829
 s    1 1.00
                 0.122                   1
 p    1 1.00
                 0.727                   1

6 0
 s    3 1.00
                 13.01   0.033498726389998
                 1.962    0.23480080117413
                0.4446     0.8136829578829
 s    1 1.00
                 0.122                   1
 p    1 1.00
                 0.727                   1

7 0
 s    3 1.00
                 13.01   0.033498726389998
                 1.962    0.23480080117413
                0.4446     0.8136829578829
 s    1 1.00
                 0.122                   1
 p    1 1.00
                 0.727                   1

8 0
 s    3 1.00
                 13.01   0.033498726389998
                 1.962    0.23480080117413
                0.4446     0.8136829578829
 s    1 1.00
                 0.122                   1
 p    1 1.00
                 0.727                   1

[5d]
[7f]
[9g]

[MO]
 Sym= A
 Ene=               0
 Spin= Alpha
 Occup=    1.00000
   1    -0.00013180946172446
   2    0.00015700469361144
   3     0.002384977816478
   4    0.00031278730679327
   5    -1.9115596194231e-07
   6    6.1065009822114e-08
   7    0.0011709801821401
   8    -7.7029967339588e-08
   9    3.2288055807047e-08
  10    0.00010148146449096
  11    -1.3364552449459e-08
  12    6.1656653456735e-09
  13    -0.00017578892804722
  14    -1.0804979977105e-08
  15        1.002269715964
  16    0.0054758701686904
  17    -0.0088648094104313
  18    0.00020625536218955
  19    -3.9030275696743e-07
  20    -2.2362343849945e-07
  21    0.00078705513289975
  22    -1.8016767954192e-07
  23    -1.066240271547e-07
  24    8.9021900125869e-05
  25    -1.2077301621001e-08
  26    1.9764241368046e-08
  27    -0.0001542150877682
  28    -6.5751507625737e-09
  29    0.00047738784119432
  30    0.0012638793265329
  31    8.9718296887077e-05
  32    -1.3947539497308e-06
  33    0.00036831759227536
  34    0.00047796778647618
  35    0.0012641326017038
  36    8.9698063780341e-05
  37    -0.00031825571462223
  38    -0.00018534232213971
  39    0.00047740326319355
  40    0.0012639069913964
  41    8.9717693965453e-05
  42    0.00031965860974564
  43    -0.0001829719503961
  44    -0.00010361697203584
  45    9.9854931835669e-05
  46    4.5328329233434e-05
  47    1.7649323272024e-05
  48    3.8158693062692e-06
  49    -0.00010376438538027
  50    9.9845729535271e-05
  51    4.5322673788425e-05
  52    -5.5210686656517e-06
  53    -1.7177878360587e-05
  54    -0.00010388520136558
  55    9.9759191448598e-05
  56    4.5317933194688e-05
  57    -1.2122664384582e-05
  58    1.3362897650822e-05
 Sym= A
 Ene=               1
 Spin= Alpha
 Occup=    1.00000
   1       1.0022697227225
   2    0.0054758384557379
   3    -0.0088648268762332
   4    -0.00020621070171253
   5    1.0315657893057e-06
   6    -1.5341552669315e-07
   7    -0.00078702949729871
   8     4.92089974398e-07
   9    -7.3899181218403e-08
  10    8.9081508777666e-05
  11    8.883968925193e-09
  12    -6.7727987545234e-09
  13    -0.00015418618322759
  14    -4.0568492949494e-08
  15    -0.00013183343791019
  16    0.0001567866307104
  17    0.0023848462191984
  18    -0.00031292268605129
  19    1.9067543198361e-08
  20    5.2890846326436e-08
  21    -0.0011710474917622
  22    -2.4674218255006e-08
  23    2.0173356558665e-08
  24    0.00010149390181226
  25    1.0014108219375e-08
  26    3.9668415178598e-09
  27    -0.0001757747045869
  28    -4.8327085921252e-08
  29    -0.00010384759138043
  30    9.9831768325125e-05
  31    -4.5323269357376e-05
  32    -3.814062412111e-06
  33    -1.7623586427895e-05
  34    -0.0001038868308047
  35    9.9848200620069e-05
  36    -4.5318985130269e-05
  37    1.7163504964569e-05
  38    5.5085364669997e-06
  39    -0.00010398641854626
  40    9.9679138225656e-05
  41    -4.5317440227491e-05
  42    -1.3356109697021e-05
  43    1.211652958727e-05
  44    0.00047665854096892
  45    0.0012635678918291
  46    -8.9741451909282e-05
  47    -0.00036835624110538
  48    1.3780253323224e-06
  49    0.0004778846142757
  50    0.0012641022166593
  51    -8.9699564015954e-05
  52    0.00018537164714417
  53    0.00031824703457236
  54    0.00047811891315021
  55    0.0012642137605816
  56    -8.9691737471614e-05
  57    0.00018296604158999
  58    -0.00031962275835524
 Sym= A
 Ene=               2
 Spin= Alpha
 Occup=    1.00000
   1    -0.0024197132268536
   2    -0.020553391720858
   3    -0.015010563292661
   4    -0.025099585734868
   5    -0.00082262918095655
   6    0.00079121815226249
   7    -0.015221554596186
   8     -0.00368535025651
   9    -0.010491068996799
  10    -0.00070873895214108
  11     0.016466145419506
  12    -0.0019119663186824
  13    0.0047557146989836
  14    -0.0002067955347148
  15    -0.013424839090869
  16      0.18300673726544
  17      0.11030714015897
  18      0.12428876605309
  19    -0.001005191507529
  20      0.34613987226929
  21     0.060710131513204
  22    -0.00014318021125852
  23      0.16542968354974
  24     0.019208022471565
  25     0.013878644749672
  26    -0.00047232319164436
  27    0.0025247848544809
  28    -6.3420389367294e-05
  29      0.43100935325038
  30      0.16139941752936
  31    -0.012782645112948
  32    -0.00014544091112336
  33    -0.029960647119392
  34    -0.019959463281927
  35    -0.036944110174751
  36    0.0025597675842632
  37    0.0021968789894146
  38     0.011945342573891
  39     -0.02026086965977
  40    -0.037504478440765
  41    0.0025365283033831
  42    -0.0020584211673894
  43      0.01180369253203
  44    -0.00016329271115626
  45    0.0021630567805136
  46    -0.001787711637172
  47    0.00019652379791693
  48    -0.0004486819890597
  49    -0.021005408478541
  50    -0.024069479114441
  51    -0.0015075639791435
  52    -0.00020225553002093
  53    -0.00083736270618007
  54     0.021108899520582
  55      0.03716693994895
  56    -0.00056620203670855
  57    0.00051480519169346
  58    -0.00092016804458537
 Sym= A
 Ene=               3
 Spin= Alpha
 Occup=    1.00000
   1    -0.013423228697452
   2       0.1830082720879
   3      0.11030838823694
   4      -0.1242839901153
   5     -0.34614064157453
   6    0.0010108101051893
   7    -0.060707870311272
   8     -0.16543009161813
   9    0.00014583474020084
  10    -0.011790750847461
  11    -6.3588798774886e-05
  12    -0.00047204448375254
  13    -0.015371968869251
  14      0.01387871033465
  15    -0.0024203543464079
  16    -0.020552758020907
  17    -0.015009836653271
  18     0.025094375460062
  19    -0.00079045612161489
  20    0.00082382940742339
  21     0.015219090259723
  22     0.010491512354537
  23    0.0036857543865102
  24    -0.0037643760557617
  25    -0.00020701537730232
  26    -0.001911982647965
  27    0.0029919980818164
  28     0.016466209398823
  29    -0.00016406082787456
  30    0.0021622411813158
  31    0.0017876028700325
  32    0.00044870346633593
  33    -0.00019647317698925
  34    -0.021007740096875
  35    -0.024070382231992
  36    0.0015075060177428
  37    0.00083719723215511
  38    0.00020217761860586
  39     0.021107792880481
  40     0.037166591149568
  41    0.00056611736075961
  42    0.00092029523491913
  43    -0.00051483604378328
  44      0.43100925266622
  45      0.16139919726281
  46     0.012782768268474
  47     0.029960623126604
  48    0.0001456126190853
  49    -0.019956510067906
  50    -0.036943123630909
  51    -0.0025595377886916
  52    -0.011945504500035
  53    -0.0021969498614096
  54    -0.020266217877702
  55    -0.037506991159977
  56    -0.002536580351464
  57    -0.011803495486462
  58    0.0020582109897858
 Sym= A
 Ene=               4
 Spin= Alpha
 Occup=    1.00000
   1    -0.013425952524768
   2      0.18300716683382
   3      0.11030743324852
   4     -0.12428870589647
   5      0.17394635295477
   6      0.29925959459419
   7    -0.060710102286098
   8     0.082841601452799
   9       0.1431930731985
  10     0.011104378849698
  11    -0.011987556418549
  12     0.015735262073264
  13    -0.0021538551047285
  14    -0.0069943415637478
  15    -0.0024199055753749
  16    -0.020553586609863
  17    -0.015010667491024
  18     0.025099219463334
  19     0.001110942665956
  20    0.00027053484183013
  21     0.015221386505604
  22    -0.0020527576019889
  23    -0.010929758123893
  24    -0.0029067075113198
  25    -0.014156656099598
  26    0.0024835819847224
  27    0.0034867602887692
  28    -0.0084123239974078
  29    -0.021008267536059
  30    -0.024070388074629
  31    0.0015076492004408
  32    -0.00024343755961385
  33    -0.00082612542741225
  34      0.02110818364369
  35     0.037166836391896
  36    0.0005662308977222
  37    -0.00090591279880885
  38    -0.00053962783680748
  39    -0.00016035342302557
  40    0.0021638931791266
  41    0.0017875990550102
  42    -0.00039471064884085
  43    -0.00029025374220284
  44     -0.02026559129621
  45    -0.037506390022764
  46    -0.0025366814912611
  47    0.0076842546612336
  48    0.0091929735732575
  49      0.43100940484333
  50      0.16139943439345
  51     0.012782645121026
  52    -0.014854191705374
  53    -0.026019514344131
  54    -0.019954222391289
  55    -0.036942173085527
  56    -0.0025595798540608
  57    0.0040700493452351
  58     0.011443719056711
 Sym= A
 Ene=               5
 Spin= Alpha
 Occup=    1.00000
   1    -0.002419565443745
   2    -0.020553162948849
   3    -0.015010362791167
   4    -0.025098685394955
   5    0.0010923940855134
   6    0.00031450919870344
   7    -0.015221108966613
   8    -0.0072448520910843
   9    0.0084360712762389
  10    -0.0044345145897698
  11    -0.0080539269242205
  12    -0.00057187294942911
  13    0.0026046715212954
  14     0.014363707161667
  15    -0.013424756107326
  16      0.18300584853524
  17       0.1103066545066
  18      0.12428732144433
  19      0.30026940057599
  20     -0.17220018273789
  21     0.060709436064814
  22      0.14333842724314
  23    -0.082591100085451
  24    -0.0043952315246733
  25    -0.0068843221138804
  26    -0.015263198990169
  27    -0.011102450478619
  28     0.012051203116939
  29    -0.019960885761944
  30    -0.036944464679555
  31    0.0025597938728752
  32    0.0092465640162296
  33    -0.0078750869937697
  34    -0.020262449557682
  35    -0.037505370822911
  36    0.0025365480615481
  37     0.011251438040587
  38    -0.0041192833482742
  39       0.4310096251916
  40      0.16139988428417
  41    -0.012782688098197
  42    -0.025873910616518
  43      0.01510624646637
  44     0.021112359319483
  45     0.037168492234404
  46    -0.00056605749168396
  47    -0.0010541339225393
  48    1.4180827236612e-05
  49    -0.00016700644518385
  50    0.0021613869071693
  51    -0.0017878131093781
  52    -0.00048680372240811
  53    5.4348919326905e-05
  54    -0.021005740360034
  55    -0.024069747891741
  56    -0.0015075468066194
  57    -0.00062416809110483
  58    0.00059375126969739
 Sym= A
 Ene=               6
 Spin= Alpha
 Occup=    1.00000
   1    -0.013426350915819
   2       0.1830059007384
   3      0.11030675455066
   4     -0.12428652669863
   5      0.17219386676225
   6     -0.30027333314914
   7    -0.060709057866773
   8     0.082588225871596
   9     -0.14334031081188
  10     0.011812327414625
  11     0.012051295518572
  12    -0.015263383219953
  13    -0.0017449451833678
  14    -0.0068842622174964
  15    -0.0024196930701402
  16    -0.020553004409354
  17    -0.015010218619116
  18     0.025097939419241
  19    -0.00031861017216085
  20    -0.001093701396632
  21     0.015220755661352
  22    -0.0084378721935557
  23     0.007244414835541
  24    -3.8542879338752e-05
  25     0.014363837812588
  26    -0.00057171502769357
  27    0.0051427471474062
  28    -0.0080537883472378
  29     0.021111331637959
  30     0.037168242508437
  31    0.00056608477910936
  32    -1.4297463311308e-05
  33    0.0010542127300008
  34    -0.00016406033755537
  35    0.0021621311626107
  36    0.0017876877028755
  37    -5.4197123868675e-05
  38    0.00048691918564914
  39    -0.021008165505057
  40    -0.024070533716822
  41    0.0015076032071382
  42    -0.00059366723194779
  43    0.00062401293072596
  44    -0.019955930400629
  45    -0.036942567798954
  46    -0.0025596003388201
  47     0.007875349227349
  48    -0.0092466800252926
  49    -0.020268156389527
  50    -0.037507639469165
  51    -0.0025367205017353
  52    0.0041193458194912
  53    -0.011251115120803
  54      0.43100967821059
  55      0.16139992492578
  56     0.012782703728832
  57    -0.015106434127888
  58     0.025873788802147
 Sym= A
 Ene=               7
 Spin= Alpha
 Occup=    1.00000
   1    -0.0024195861720538
   2    -0.020552264819257
   3    -0.015009861669233
   4    -0.025099905151952
   5    -0.00027218540909062
   6    -0.0011059424799677
   7    -0.015221703573694
   8     0.010929043095905
   9    0.0020549597685554
  10    -0.0015662702996295
  11    -0.008412301921561
  12    0.0024838319003615
  13    0.0042605725318736
  14    -0.014156781237713
  15    -0.013426096185878
  16      0.18300591418507
  17      0.11030666289209
  18      0.12428813837743
  19     -0.29926353851816
  20     -0.17394162000319
  21     0.060709843594789
  22     -0.14319485435202
  23    -0.082839476781454
  24    -0.0036867472433178
  25    -0.0069943912204708
  26     0.015735475614262
  27    -0.010693431868072
  28    -0.011987639930809
  29    -0.020262622333382
  30    -0.037505248581699
  31    0.0025365763174899
  32    -0.0091930957470619
  33    -0.0076843803194335
  34      0.43100960784817
  35       0.1613998532839
  36    -0.012782660508073
  37     0.026019378934352
  38     0.014854323068985
  39    -0.019959753733358
  40    -0.036944153425411
  41    0.0025597735993587
  42    -0.011443387755201
  43    -0.0040701742443327
  44    -0.021006259986375
  45     -0.02407004317274
  46    -0.0015075893164871
  47    0.00082630908581226
  48    0.00024358853443384
  49     0.021111941343967
  50     0.037168174073849
  51    -0.00056609847285805
  52    0.00053940422212762
  53    0.00090574873783261
  54    -0.00016354004113644
  55    0.0021626982318929
  56    -0.0017877189266761
  57    0.00029035537319527
  58    0.00039460979987436
 Sym= A
 Ene=               8
 Spin= Alpha
 Occup=    1.00000
   1     0.010916633366427
   2     -0.19897351235468
   3     -0.14933953383497
   4     -0.36538707225533
   5    -3.1284502422747e-06
   6    -7.6501941090375e-07
   7     -0.16966486795376
   8    -1.5007369566283e-06
   9    -3.5414777087645e-07
  10     0.016010236812863
  11    1.3151129121388e-08
  12    -4.3849396401885e-08
  13    -0.027730872134142
  14    1.4064485828298e-07
  15      0.01091681674769
  16     -0.19897606874528
  17     -0.14934110827979
  18      0.36538582650403
  19    3.0472906641816e-07
  20    -3.6123081756149e-07
  21      0.16966429672444
  22    2.3613477043132e-07
  23    -1.1889303121382e-07
  24     0.016010277460826
  25    2.026141809171e-08
  26    -3.6885136575701e-08
  27    -0.027730676223205
  28    1.6185714841922e-07
  29     0.022196923589544
  30     0.037319671214003
  31    0.0092166839991629
  32    2.2333811850355e-06
  33    0.0013961384283958
  34     0.022196897125296
  35     0.037319416661805
  36    0.0092166759340589
  37    -0.0012101742966319
  38    -0.00069615051920365
  39     0.022197749063315
  40      0.03732018908679
  41    0.0092166495240289
  42    0.0012079563863768
  43    -0.00069998096929049
  44     0.022201566308893
  45     0.037321291369531
  46    -0.0092165281201104
  47    -0.0013957988708896
  48    -2.2411624106179e-06
  49     0.022196897366764
  50     0.037319219270956
  51    -0.0092166879302012
  52    0.00069602882874799
  53    0.0012101400971248
  54     0.022198014921926
  55     0.037319666565175
  56    -0.0092166483528041
  57    0.00069982362224494
  58    -0.0012078830973332
 Sym= A
 Ene=               9
 Spin= Alpha
 Occup=    0.00000
   1      -1.0498247447254
   2      -2.0580701268626
   3       6.7685285398779
   4    -0.017386481192044
   5    -0.068393679145902
   6     0.050428312121157
   7      0.90670414544718
   8     0.038421283955799
   9     -0.06134500550911
  10     -0.10620543405696
  11    -0.043130551261696
  12     0.067084617859562
  13    -0.0023491122372364
  14     0.096555796911029
  15      0.11549876159207
  16      0.13323815106019
  17      -2.5677783520517
  18      0.25002230619883
  19    -0.011544236185313
  20     0.008559422681926
  21       1.4788330852363
  22    -0.044641291048785
  23     0.032850602130413
  24     0.056649559551074
  25    -0.0093167865529781
  26    -0.0023490563913838
  27     -0.07859930752864
  28     0.020415057047797
  29      0.12273558220043
  30    -0.080401568999828
  31    -0.053634444667127
  32    0.0073063076049175
  33     0.010146721952366
  34      0.13200543794866
  35    -0.086557811691054
  36    -0.052854486542419
  37    -0.0062292657777113
  38    -0.0029921694604264
  39      0.14341779483953
  40    -0.055289333321677
  41    -0.060593238577651
  42    0.0092704900136518
  43    -0.0072040207964815
  44     -0.68939629025369
  45     -0.79298970277642
  46    -0.063004562116645
  47     -0.10289565792529
  48     0.014836470120202
  49     -0.61560168329102
  50     -0.78268951335724
  51    -0.058013781381654
  52     0.015066951572835
  53     0.063083516142138
  54       -0.557115575038
  55     -0.82681614219035
  56    -0.046641726176339
  57    0.0079223990470139
  58    -0.021293474990669
 Sym= A
 Ene=              10
 Spin= Alpha
 Occup=    0.00000
   1      0.10658864395074
   2      0.13381529644764
   3      -1.9662248435657
   4     -0.17716167222824
   5    0.0072406628032749
   6    0.0011469145633254
   7      -1.0737731228665
   8     0.026068729272163
   9    -0.0018882637712025
  10      0.03392925719646
  11    0.00043502905445329
  12    0.0041497400110505
  13    -0.056444954357536
  14     0.011730172231765
  15      -1.0112599108483
  16      -1.9869360378846
  17       6.4336469339104
  18     -0.12074556212546
  19     0.039956662622708
  20    0.0027217624950121
  21    -0.087724647167525
  22    -0.030880262749752
  23    0.0068151832896931
  24     0.030310030510555
  25    0.0055813582613628
  26    -0.050348636529428
  27    -0.035235574513418
  28     0.054133763917185
  29     -0.66781087193413
  30     -0.93997876686298
  31     0.019349428075361
  32    0.0073277908332639
  33     0.088399011169478
  34     -0.62586788134523
  35     -0.94266033235957
  36     0.014906553334745
  37    -0.054430071075278
  38    -0.035510100884253
  39     -0.68800501217339
  40     -0.92623303370682
  41     0.020809914867933
  42     0.091978579553773
  43    -0.047844903371435
  44      0.12221644186309
  45    0.0059117343999703
  46      0.05382377306121
  47    -0.0039061059731074
  48    -0.002397108154421
  49      0.11369844368093
  50    -0.0042164862496772
  51     0.049975019126707
  52    -0.0038429947153566
  53    0.0049551688399673
  54      0.11624250978882
  55    -0.0083052688927412
  56     0.050742751262059
  57    0.0029682244744898
  58    -0.00013472506765121
 Sym= A
 Ene=              11
 Spin= Alpha
 Occup=    0.00000
   1      0.00548356553542
   2     0.010344691108529
   3    -0.050790141283865
   4     0.019846041503453
   5     -0.41509319101558
   6     0.085316859935562
   7    -0.059241838784282
   8       2.9060780367021
   9    -0.075208363417768
  10      0.25817644533818
  11    -0.015425800946165
  12      0.15317459868486
  13      0.17760871090786
  14     -0.74917531457091
  15    -0.0039938740673257
  16    -0.0081211410806651
  17     0.046603907137681
  18    0.0043373157288894
  19    -0.018843727033362
  20    -0.0067652478359553
  21    -0.030215073393484
  22     -0.76397537209062
  23     -0.10063846124802
  24    -0.013387938515609
  25    -0.015885512326561
  26     0.014387392137006
  27    -0.012469668329135
  28    -0.047273917614135
  29     0.027322790059784
  30      0.14386612949147
  31     -0.02169344692601
  32     0.073812701294466
  33    -0.016440230754264
  34     -0.13896470986602
  35     -0.19729569157498
  36    -0.038190584942704
  37    -0.0086920446065776
  38    -0.051691814739648
  39      0.10587613129235
  40      0.07022927511168
  41     0.062387122599844
  42    0.00067293575899149
  43     0.038160972091897
  44      0.97427526962582
  45       1.5139588306524
  46     0.045343088093929
  47      0.21079138155102
  48     0.036015318761633
  49     -0.52923499883665
  50     -0.73023161137454
  51    -0.026953366792691
  52     -0.14678161150372
  53      0.23823000707068
  54     -0.42715937560599
  55     -0.79916223782004
  56      0.00510787048704
  57     -0.14345220014862
  58     -0.17204760719264
 Sym= A
 Ene=              12
 Spin= Alpha
 Occup=    0.00000
   1    -0.010029895347855
   2    -0.019329424512336
   3     0.074191645183898
   4    -0.013391716977548
   5    -0.074138878445894
   6     -0.43927339312582
   7     0.060472115714932
   8     0.084591135283875
   9        2.967419854635
  10     -0.10288542528597
  11     -0.68959554330317
  12      0.32973209615766
  13    -0.066442036420284
  14    0.0069147172442956
  15     0.002658986827992
  16    0.0040879500886882
  17    -0.057169065175417
  18     0.002492793983664
  19    0.0074770260976854
  20    -0.029046603347582
  21     0.036506233007152
  22      0.10441000610126
  23     -0.79855488376639
  24    -0.015959275661477
  25    -0.032085250296685
  26    -0.019326823394775
  27    -0.0092875433615381
  28     0.015511075013254
  29      0.15018009602881
  30      0.15882157493452
  31     0.054792396120613
  32    0.0041126288653086
  33    -0.028214262988325
  34    -0.045238742477861
  35     0.035368596605389
  36    -0.049077858189721
  37    -0.032227251725935
  38     0.054354044490184
  39    -0.098452955137239
  40     -0.21049889036484
  41    -0.0082163429911157
  42     0.058825914174141
  43     0.043739381213243
  44    -0.044902545144119
  45     0.049664693346108
  46    -0.018503661122468
  47     -0.02395772002339
  48      -0.2589401310394
  49     -0.82195284733012
  50      -1.3607284930179
  51    -0.038613707980405
  52      0.16875173103623
  53     0.087348201991187
  54      0.85284009065185
  55       1.3181554685507
  56     0.042300552635209
  57     -0.22808645061891
  58     0.082194741594155
 Sym= A
 Ene=              13
 Spin= Alpha
 Occup=    0.00000
   1    -0.072646435684284
   2      -0.1235907162758
   3      0.82311935523665
   4     -0.57202241604392
   5     0.059336159025596
   6    -0.028536568789962
   7         3.38905817705
   8     0.057539174197587
   9    -0.017565380139619
  10     -0.10342451154114
  11     0.045782920862822
  12    -0.059313488437747
  13       0.4483459113518
  14    -0.094840496041912
  15     0.024359507150962
  16    -0.022585012369001
  17      -2.3273637414475
  18      0.29801449384858
  19    0.0073806602613509
  20    -0.0067193882498535
  21       1.5892803391738
  22     0.010961639592795
  23    -0.011584041926265
  24      0.05396170945312
  25    0.0064665203452943
  26    0.0025978119488643
  27     -0.11681958361909
  28    -0.015802312023699
  29     0.060081054132094
  30     -0.29269267047631
  31    -0.016142967630066
  32    -0.0036010892418968
  33     0.027360842866556
  34     0.050295304400771
  35     -0.29373986416878
  36    -0.014726231334005
  37    -0.025807764502805
  38     -0.01860366715847
  39     0.048349137569339
  40     -0.30593805885511
  41    -0.0065023967523211
  42     0.022655538081107
  43    -0.013708991766374
  44      0.33547340519001
  45      0.68659301770418
  46     -0.13260075401451
  47      0.15205207716679
  48    -0.007014505130888
  49      0.21770207432395
  50      0.63658739237124
  51     -0.15072860471313
  52    -0.038222879140521
  53    -0.093818671394684
  54      0.13716435969821
  55      0.61163370871054
  56     -0.16208403359442
  57    -0.023297276051147
  58      0.05934720391594
 Sym= A
 Ene=              14
 Spin= Alpha
 Occup=    0.00000
   1    0.00080529604533055
   2    0.0025934078065691
   3    0.0057654291824494
   4    0.0045836100125366
   5    -0.012081160728356
   6    -0.024043927452863
   7    0.0026539378104035
   8     -0.12444375489995
   9     -0.78029047310436
  10     -0.02323626932136
  11     0.040968406431179
  12    -0.019314332677571
  13    -0.010124291233725
  14     0.011098796688272
  15    0.0054217743849815
  16     0.010747615937561
  17     -0.02943407534406
  18    0.0065895785806579
  19     0.048870163650007
  20     -0.40483770876855
  21    -0.0082534128452851
  22    -0.041908592293268
  23       2.9627623995565
  24      0.34249481042067
  25      0.73592549572153
  26    -0.094608020727025
  27      0.18350306650167
  28    -0.011589383050423
  29       -1.007682816413
  30      -1.5445721437711
  31     0.055280320759066
  32     0.023628633758713
  33      0.22116417657142
  34      0.53105487306043
  35      0.75678960284454
  36    -0.033593787023149
  37      0.22134618328676
  38     -0.13684281279413
  39      0.48016876738943
  40      0.80558925945154
  41    -0.014224585939011
  42     -0.18765065727182
  43     -0.12902415145721
  44    -0.037009422893214
  45     -0.14713618697914
  46    -0.024621217555661
  47    -0.017051629375641
  48     0.073680723844233
  49      0.14371249142118
  50      0.20704535815803
  51    -0.038082590004088
  52     -0.05184248948879
  53    -0.009689572115532
  54     -0.10759160771776
  55    -0.062716278600696
  56      0.06245801241655
  57     0.037807965062538
  58    0.0016691173530709
 Sym= A
 Ene=              15
 Spin= Alpha
 Occup=    0.00000
   1    2.4935925502349e-05
   2    0.0045214467463653
   3      0.11203393455613
   4     0.019433866442119
   5    -0.028908927347021
   6    0.0073425868488686
   7     0.075037325129456
   8     -0.79665081812213
   9      0.10872634332618
  10    -0.018330820927433
  11    -0.017027008915834
  12     0.020755399974495
  13    0.00040188917887182
  14     0.030724193398396
  15    0.0096078824190311
  16     0.018123827825419
  17    -0.070983253955771
  18    -0.017541755272668
  19     -0.43262697173657
  20    -0.082909330733856
  21       0.1435326875987
  22       2.9678245957871
  23     0.054998187909716
  24     -0.11709427753574
  25    -0.021760050962458
  26     -0.35008201431525
  27      -0.1093991958868
  28      0.68741795127958
  29     0.057002518505815
  30    -0.052287619466981
  31    -0.022071008891076
  32     -0.25448482034127