[Molden Format]
made by pyscf v[2.0.1]
[Atoms] (AU)
C   1   6     0.00000000000000     0.00000000000000     0.00000000000000
C   2   6     2.89040035821050     0.00000000000000     0.00000000000000
H   3   1     3.65380793584534     0.00000000000000     1.93990930394644
H   4   1     3.65380793584534    -1.68001073825540    -0.96995465197322
H   5   1     3.65380793584534     1.68001073825540    -0.96995465197322
H   6   1    -0.76340757763484    -1.91043772266697    -0.33686171546942
H   7   1    -0.76340757763484     0.66348805817456     1.82291845791239
H   8   1    -0.76340757763484     1.24694966449241    -1.48605674244297
[GTO]
1 0
 s    8 1.00
                  6665  0.00069158396281299
                  1000  0.0053257961529341
                   228   0.027060721042034
                 64.71    0.10165684614077
                 21.06     0.2745748236174
                 7.495    0.44829431892377
                 2.797    0.28490261071525
                0.5215   0.015194859206082
 s    8 1.00
                  6665  -0.00029326965268655
                  1000  -0.0023180354739745
                   228  -0.011499786038565
                 64.71  -0.046826727009787
                 21.06   -0.12846616875047
                 7.495   -0.30126627246289
                 2.797   -0.25563070233011
                0.5215      1.093793361012
 s    1 1.00
                0.1596                   1
 p    3 1.00
                 9.439   0.056979251590039
                 2.002    0.31320721150073
                0.5456    0.76037674173753
 p    1 1.00
                0.1517                   1
 d    1 1.00
                  0.55                   1

2 0
 s    8 1.00
                  6665  0.00069158396281299
                  1000  0.0053257961529341
                   228   0.027060721042034
                 64.71    0.10165684614077
                 21.06     0.2745748236174
                 7.495    0.44829431892377
                 2.797    0.28490261071525
                0.5215   0.015194859206082
 s    8 1.00
                  6665  -0.00029326965268655
                  1000  -0.0023180354739745
                   228  -0.011499786038565
                 64.71  -0.046826727009787
                 21.06   -0.12846616875047
                 7.495   -0.30126627246289
                 2.797   -0.25563070233011
                0.5215      1.093793361012
 s    1 1.00
                0.1596                   1
 p    3 1.00
                 9.439   0.056979251590039
                 2.002    0.31320721150073
                0.5456    0.76037674173753
 p    1 1.00
                0.1517                   1
 d    1 1.00
                  0.55                   1

3 0
 s    3 1.00
                 13.01   0.033498726389998
                 1.962    0.23480080117413
                0.4446     0.8136829578829
 s    1 1.00
                 0.122                   1
 p    1 1.00
                 0.727                   1

4 0
 s    3 1.00
                 13.01   0.033498726389998
                 1.962    0.23480080117413
                0.4446     0.8136829578829
 s    1 1.00
                 0.122                   1
 p    1 1.00
                 0.727                   1

5 0
 s    3 1.00
                 13.01   0.033498726389998
                 1.962    0.23480080117413
                0.4446     0.8136829578829
 s    1 1.00
                 0.122                   1
 p    1 1.00
                 0.727                   1

6 0
 s    3 1.00
                 13.01   0.033498726389998
                 1.962    0.23480080117413
                0.4446     0.8136829578829
 s    1 1.00
                 0.122                   1
 p    1 1.00
                 0.727                   1

7 0
 s    3 1.00
                 13.01   0.033498726389998
                 1.962    0.23480080117413
                0.4446     0.8136829578829
 s    1 1.00
                 0.122                   1
 p    1 1.00
                 0.727                   1

8 0
 s    3 1.00
                 13.01   0.033498726389998
                 1.962    0.23480080117413
                0.4446     0.8136829578829
 s    1 1.00
                 0.122                   1
 p    1 1.00
                 0.727                   1

[5d]
[7f]
[9g]

[MO]
 Sym= A
 Ene=               0
 Spin= Alpha
 Occup=    1.00000
   1       1.0022713909506
   2    0.0054810761415466
   3    -0.0088719140319041
   4    -0.00020198991072177
   5    -6.487944571762e-07
   6    -1.3108919930405e-07
   7    -0.00078404470935096
   8    -2.997683614534e-07
   9    -6.1202170242038e-08
  10    8.9010800766125e-05
  11    -1.0489456110835e-09
  12    1.1266154416096e-08
  13    -0.0001542337158035
  14    1.2319101133896e-08
  15    -0.00013591429282659
  16    0.00014984920682523
  17    0.0024180615983087
  18    -0.00031281565500371
  19    -2.8809585145361e-07
  20    -1.2753127371494e-07
  21    -0.0011613818069578
  22    -1.156433340102e-07
  23    -5.0691860369849e-08
  24    0.00010359584193343
  25    7.6188237725031e-10
  26    1.2324734749715e-08
  27    -0.00017945060453627
  28    1.930215809024e-08
  29    -0.00010835164567518
  30    8.9435268388315e-05
  31    -4.3575584981202e-05
  32    -3.3281917593012e-06
  33    -1.6928547552304e-05
  34    -0.00010802152830101
  35    8.9535881318834e-05
  36    -4.358902997181e-05
  37    1.6338152264172e-05
  38    5.599904015172e-06
  39    -0.00010837497400915
  40    8.945771777253e-05
  41    -4.3575540675893e-05
  42    -1.3001072052309e-05
  43    1.1330843474177e-05
  44    0.00047840404671221
  45    0.0012674752544438
  46    -9.0065376734339e-05
  47    -0.00036213174477871
  48    -6.2674160538663e-05
  49    0.00047756628867744
  50    0.0012671435676468
  51    -9.0094427365332e-05
  52    0.00012678756150915
  53    0.00034500011676921
  54    0.00047758251365524
  55    0.0012671372634287
  56    -9.0094269898387e-05
  57    0.00023535732403964
  58    -0.00028232249239318
 Sym= A
 Ene=               1
 Spin= Alpha
 Occup=    1.00000
   1    -0.00013592378538209
   2    0.00014965625227016
   3    0.0024179465284698
   4    0.00031296119692463
   5    2.0217432760411e-07
   6    5.7432830806117e-08
   7      0.00116145570719
   8    6.2132932942748e-08
   9    1.547105269878e-08
  10    0.00010360830327378
  11    2.287688324849e-08
  12    -6.8920796486339e-09
  13    -0.00017943947951002
  14    3.0816454803489e-08
  15       1.0022714051802
  16    0.0054809400446641
  17    -0.008871994306119
  18    0.0002018720138709
  19    8.2692177444541e-07
  20    5.2266706595852e-07
  21    0.00078398339511995
  22    3.9056046776261e-07
  23    2.4652139582131e-07
  24    8.9060657899213e-05
  25    1.8352126508958e-08
  26    -4.2083025097895e-08
  27    -0.00015420484959537
  28    2.3297630810005e-08
  29    0.00047819255022665
  30    0.0012674193441715
  31    9.0070257873254e-05
  32    -1.1365897051609e-06
  33    0.00036753257137646
  34    0.00047690896215761
  35    0.0012668700494357
  36    9.0114425449411e-05
  37    -0.0003177687622902
  38    -0.00018480356208325
  39    0.00047812931560588
  40     0.001267381769753
  41    9.0072609093939e-05
  42    0.00031888917272981
  43    -0.00018273847833835
  44    -0.00010851099328461
  45    8.9447491743681e-05
  46    4.357202898069e-05
  47    1.6072687272698e-05
  48    6.2051780861379e-06
  49    -0.00010834200435649
  50    8.9407301381257e-05
  51    4.3580150765749e-05
  52    -2.6641570768113e-06
  53    -1.7041467631425e-05
  54    -0.00010832609204826
  55    8.9468952380273e-05
  56    4.3581603382628e-05
  57    -1.3416007039342e-05
  58    1.083140051532e-05
 Sym= A
 Ene=               2
 Spin= Alpha
 Occup=    1.00000
   1    -0.0024032937184472
   2    -0.020560529945126
   3    -0.015270750342939
   4    -0.025086518783687
   5    5.2215142486389e-05
   6    -0.00079290497121198
   7    -0.015507651702434
   8     0.012538554255659
   9    0.0034958617041132
  10    -0.0013535224746911
  11    -0.008343302655059
  12    0.0015302683031163
  13    0.0044136889732738
  14    -0.014091804627338
  15    -0.013464701009886
  16      0.18292222721887
  17      0.11065225328547
  18       0.1242222385253
  19     -0.29945273847339
  20     -0.17390592347969
  21     0.060477151358126
  22     -0.14395320744695
  23     -0.08325063676639
  24    -0.0036230746013588
  25    -0.0069447009728821
  26     0.015533002675927
  27    -0.010710364594199
  28    -0.011916504726767
  29     -0.02025998452459
  30    -0.037316443940707
  31    0.0025351783461801
  32    -0.0092066132595779
  33    -0.007662940482607
  34       0.4309825702585
  35      0.16125105361238
  36    -0.012734115250627
  37     0.026052462988929
  38     0.014895064419776
  39    -0.019986887337965
  40    -0.036824743683445
  41    0.0025549147785657
  42    -0.011407698815378
  43    -0.0040994776151261
  44    -0.022755583176413
  45    -0.026011341571655
  46    -0.0013425731975542
  47    0.00077810165481404
  48    0.00029083971943102
  49      0.01873689000294
  50     0.032653623996072
  51    -0.00074991970622253
  52    0.00033904464255252
  53    0.00081488276913846
  54    0.0041370525701029
  55    0.0083335783438371
  56    -0.0016181882129912
  57    0.00028354682985882
  58    0.00021406388376105
 Sym= A
 Ene=               3
 Spin= Alpha
 Occup=    1.00000
   1    -0.013466215103276
   2      0.18292064891181
   3      0.11065097763284
   4     -0.12422701219891
   5      0.22191784975255
   6     -0.26583295185712
   7    -0.060479412259993
   8      0.10680009350174
   9      -0.1274629569397
  10    0.0067448348633337
  11     0.010601404050521
  12    -0.017357983040845
  13    -0.0047248485705917
  14    -0.0088227326503102
  15    -0.0024024958175347
  16    -0.020561207284786
  17    -0.015271502794054
  18     0.025091726500235
  19    -0.00031946495620734
  20    -0.00072733644421048
  21     0.015510113523805
  22    -0.010586452610008
  23    0.0075732415499602
  24    -0.00071110436691943
  25     0.012659627813431
  26    -0.00050719807801925
  27    0.0047841297118453
  28    -0.010388530396266
  29     0.018737896162085
  30     0.032653900981909
  31    0.00075000617168879
  32    -3.9871743701413e-05
  33    0.00088157805742616
  34    0.0041382571940945
  35    0.0083345456653023
  36    0.0016182850230545
  37    -0.00019316116811863
  38    0.00029815780501149
  39    -0.022753652378201
  40    -0.026010529274299
  41    0.0013426440646195
  42    -0.00063183350659262
  43    0.00053950767856932
  44    -0.019989746581744
  45    -0.036825729402063
  46    -0.0025551407373489
  47    0.0093174751100973
  48    -0.0077538355152388
  49    -0.020254810984885
  50    -0.037313966119845
  51    -0.0025351320900405
  52    0.0060304745905422
  53    -0.010349928509775
  54      0.43098268795186
  55      0.16125129485499
  56     0.012733992179743
  57    -0.019386782062664
  58     0.022907372157991
 Sym= A
 Ene=               4
 Spin= Alpha
 Occup=    1.00000
   1    -0.013466050211903
   2       0.1829194704392
   3      0.11065034848361
   4     -0.12422476955854
   5      0.11925934141538
   6      0.32510467378859
   7    -0.060478334225937
   8     0.056986376766888
   9      0.15622381680574
  10     0.015244254904126
  11    -0.012941444095907
  12     0.011691778557441
  13    0.00018246342623726
  14    -0.0047699681403001
  15    -0.0024025339421362
  16    -0.020560936136852
  17    -0.015271233054682
  18     0.025090190365297
  19    0.00078452133702443
  20    8.7824238649412e-05
  21     0.015509355759506
  22    -0.0012678353503346
  23    -0.012954423742349
  24    -0.0026380892261565
  25    -0.015326593701201
  26    0.0017921277012105
  27    0.0036716555743311
  28    -0.0057695069065582
  29    -0.022753440369603
  30    -0.026010603689256
  31    0.0013425902314573
  32    -0.00015146913847965
  33    -0.00081694246465061
  34      0.01874105845443
  35     0.032655320606367
  36    0.00074985565155613
  37    -0.00074346550997528
  38    -0.00047516641509479
  39    0.0041337175503732
  40    0.0083325357808027
  41    0.0016183984949774
  42    -0.00016145138561717
  43    -0.00031653338934804
  44    -0.020256883067668
  45    -0.037315032487538
  46    -0.002535148637997
  47    0.0059479083166785
  48     0.010397532757479
  49      0.43098289207142
  50      0.16125167271293
  51     0.012734051743905
  52    -0.010144957252048
  53    -0.028243057364876
  54    -0.019991827787211
  55    -0.036826219249668
  56    -0.0025551738501401
  57    0.0020564438957164
  58     0.011945960096033
 Sym= A
 Ene=               5
 Spin= Alpha
 Occup=    1.00000
   1    -0.0024023580842643
   2    -0.020560793080992
   3    -0.015271216702394
   4    -0.025091331584532
   5    0.00066202501042094
   6    0.00044501292972781
   7    -0.015509925104128
   8    -0.0092961098323445
   9    0.0091123339602784
  10    -0.0038449698267541
  11    -0.008032277825235
  12    0.00013101438419621
  13    0.0029748180911457
  14     0.014271371868681
  15    -0.013467413301747
  16      0.18292046489059
  17      0.11065091343056
  18      0.12422632867334
  19      0.30033367129335
  20     -0.17237935495999
  21     0.060479090586048
  22      0.14407391591437
  23    -0.083041297903562
  24    -0.0042400809444408
  25     -0.00684774838235
  26    -0.015121531578215
  27    -0.011066926151551
  28     0.011972483195563
  29    -0.019985438651473
  30    -0.036824067790397
  31    0.0025549719021481
  32    0.0092541096973397
  33    -0.0078297051975601
  34    -0.020260130806883
  35     -0.03731604259021
  36    0.0025352986318438
  37     0.011239565421052
  38    -0.004141679549433
  39      0.43098277029871
  40      0.16125139465086
  41    -0.012734003616768
  42     -0.02592572034909
  43     0.015114597548227
  44     0.018736633741915
  45     0.032653553712241
  46    -0.00075004918339852
  47    -0.00087520688069108
  48    -0.00011372251540658
  49    0.0041415625936767
  50    0.0083354827346807
  51    -0.001618151472064
  52    -0.00032724893589536
  53    0.00013825257246329
  54    -0.022755488082513
  55    -0.026011219825039
  56    -0.0013426884447233
  57    -0.00064088565656466
  58    0.00052854417996931
 Sym= A
 Ene=               6
 Spin= Alpha
 Occup=    1.00000
   1    -0.0024024320663245
   2    -0.020560711891675
   3    -0.015271058110962
   4    -0.025089585256333
   5    -0.00071122883341566
   6    0.00034918460017619
   7     -0.01550907353298
   8    -0.0032409949685015
   9    -0.012607664275098
  10    -0.0015497165744241
  11     0.016375639724111
  12    -0.0016613080366575
  13    0.0043000848547695
  14    -0.00017971962355616
  15    -0.013467455369424
  16      0.18291969688783
  17      0.11065054671637
  18      0.12422416865286
  19    -0.00088158712657011
  20      0.34628761580865
  21     0.060478051333344
  22    -0.00012112092663213
  23      0.16629298452098
  24     0.019059353124435
  25     0.013792482731656
  26    -0.00041142570836824
  27      0.00238516770365
  28    -5.6148078609733e-05
  29      0.43098297826835
  30      0.16125175470897
  31    -0.012734063522244
  32    -0.00012675861790125
  33    -0.030009567552691
  34     -0.01998712574931
  35     -0.03682447034962
  36      0.00255499090193
  37    0.0021535081275629
  38     0.011929095161451
  39    -0.020261922114687
  40    -0.037317074516863
  41    0.0025353032194826
  42    -0.0020328613397532
  43     0.011804567601615
  44    0.0041368701267714
  45    0.0083334335327497
  46    -0.001618266627951
  47    4.3653578073985e-05
  48    -0.00035265519827017
  49     -0.02275592485836
  50    -0.026011525493781
  51    -0.0013426541568051
  52    -0.00013711871387857
  53    -0.00081931640670436
  54     0.018740122586727
  55     0.032655135214455
  56    -0.00074988462085717
  57    0.0005360654233269
  58    -0.00070092444475691
 Sym= A
 Ene=               7
 Spin= Alpha
 Occup=    1.00000
   1     -0.01346803326223
   2      0.18291932926349
   3      0.11065019821868
   4     -0.12422613550992
   5     -0.34117840046134
   6    -0.059269000900971
   7    -0.060479014680414
   8     -0.16378694578709
   9    -0.028759564696629
  10    -0.010792810308958
  11    0.0023399128568193
  12    0.0056663647930649
  13    -0.014850089514995
  14     0.013592614856221
  15    -0.0024020211178636
  16    -0.020559487712533
  17    -0.015270437185628
  18     0.025092325398125
  19    -0.00046788550707153
  20    0.00063915031615884
  21     0.015510389489961
  22     0.011852996653731
  23    0.0053809205474488
  24    -0.0033989214075995
  25    0.0026668216414109
  26    -0.0012847759202601
  27    0.0032322356843671
  28      0.01615798046815
  29    0.0041381750845611
  30     0.008334157752299
  31    0.0016182885223709
  32    0.00035486326055932
  33     1.81289784918e-05
  34     -0.02275386779034
  35    -0.026010935960928
  36    0.0013426486707128
  37    0.00078323318928672
  38    0.00027740244267157
  39     0.018741265261422
  40     0.032655220672812
  41    0.00074989549794588
  42    0.00078321046289023
  43    -0.00040614250545046
  44      0.43098295556861
  45      0.16125177580667
  46     0.012734009204015
  47     0.029531692452877
  48    0.0053357873052012
  49    -0.019990224908441
  50    -0.036825717807615
  51    -0.0025551515422721
  52    -0.011373778315073
  53    -0.0041921566442229
  54    -0.020257342183747
  55    -0.037315014997751
  56    -0.0025352036227093
  57    -0.011978439814363
  58    -4.7718062179337e-05
 Sym= A
 Ene=               8
 Spin= Alpha
 Occup=    1.00000
   1     0.010903641058689
   2     -0.19903541628581
   3      -0.1492448927534
   4     -0.36533707270589
   5    1.1556708877235e-07
   6    8.3077532025752e-07
   7     -0.16967306742066
   8    1.6882749620051e-07
   9    3.9891194615877e-07
  10     0.016045800225855
  11    -6.6261878720657e-08
  12    4.4804123850943e-08
  13    -0.027792064702235
  14    -1.4345580774031e-07
  15     0.010903460917472
  16     -0.19903275926044
  17      -0.1492432479637
  18      0.36533836726872
  19    -2.9375841955216e-06
  20    -6.7057902654239e-07
  21      0.16967365459345
  22    -1.4084846016521e-06
  23    -3.5132685844293e-07
  24     0.016045817117452
  25    -6.6469850050339e-08
  26    1.5515238523386e-07
  27    -0.027792235340035
  28    -1.2291030835077e-07
  29     0.022207306938893
  30     0.037284602897243
  31    0.0092283791477704
  32    1.6005289606625e-06
  33    0.0014061762229759
  34      0.02221048073652
  35     0.037286095704983
  36    0.0092282733111357
  37    -0.0012185142252003
  38    -0.00070152620772318
  39     0.022206042662086
  40     0.037284121280623
  41    0.0092284251732018
  42    0.0012169653178758
  43    -0.00070464242275848
  44     0.022205806721508
  45     0.037284232470272
  46    -0.0092284184023807
  47    -0.0013846956724339
  48    -0.00024585138032817
  49     0.022207076404787
  50     0.037285120445131
  51    -0.0092283798716842
  52    0.00047939537788219
  53    0.0013220867575331
  54       0.0222058463289
  55      0.03728452511875
  56    -0.0092284276496979
  57    0.00090531328317896
  58    -0.0010762432138737
 Sym= A
 Ene=               9
 Spin= Alpha
 Occup=    0.00000
   1      -1.0608906718493
   2      -2.0790009355238
   3       6.8427022010897
   4    -0.022015429297838
   5    -0.0046230835039916
   6    -0.020124668864774
   7       1.0286611315136
   8      0.01819778236538
   9    -0.021147780736581
  10    -0.075678523334974
  11     0.037278452719826
  12    -0.037714109690633
  13     0.087922323826719
  14    0.0015310807474252
  15      0.11456965181351
  16      0.12433283730275
  17      -2.6956738958985
  18      0.27661381333631
  19    -0.0015280684407904
  20    -0.0030555408060277
  21       1.5428131652702
  22    -0.0077109910790131
  23    -0.0048095494694697
  24     0.054920057144361
  25      0.00643650569496
  26    0.0032391561207434
  27    -0.093143309487981
  28     0.000576534816862
  29      0.14000940435511
  30    -0.073894719551441
  31    -0.060083690770061
  32    0.0024902717671184
  33     0.010714285033361
  34      0.13702997981272
  35    -0.080929324021079
  36     -0.05689629300364
  37    -0.0098937094923275
  38    -0.0019673720212331
  39      0.14173829182213
  40    -0.076854610716526
  41    -0.057536717660367
  42    0.0061146582531936
  43    -0.0061916076227389
  44     -0.61105312506508
  45     -0.77788528931298
  46    -0.054368392658174
  47    -0.059471731907261
  48    -0.013623268834605
  49     -0.57395955708789
  50     -0.77331845976595
  51    -0.049901975949654
  52     0.014249291930508
  53     0.039316501748895
  54     -0.63778060559075
  55     -0.80173648407749
  56     -0.05784104051207
  57     0.042551222898529
  58    -0.055810620525525
 Sym= A
 Ene=              10
 Spin= Alpha
 Occup=    0.00000
   1      0.10718420317214
   2      0.13042625238898
   3       -2.048018020099
   4     -0.19131590668231
   5    -0.0031136969953593
   6    0.0066665910780766
   7      -1.1052216955828
   8    -0.014027633015601
   9     0.031212123876478
  10     0.031613520163051
  11     0.011381207895478
  12    0.00080314448715156
  13    -0.063265680134873
  14    -0.0029324870177113
  15      -1.0184936693617
  16      -2.0005657200182
  17        6.483497823529
  18     -0.11932895090104
  19    -0.016708937211455
  20     0.043122734624649
  21     -0.14887463468926
  22      0.03426435858984
  23    -0.039697488606074
  24     0.054138351343204
  25     0.051115790984958
  26     0.015712895690095
  27     0.018152465026248
  28    -0.010744630458261
  29      -0.6904251251297
  30     -0.91632194470037
  31     0.021688794669802
  32    -0.0053146083754661
  33      0.10611255514119
  34     -0.64061248390794
  35     -0.92326517805597
  36     0.015865094996881
  37    -0.072043993223006
  38    -0.029095110291402
  39     -0.63306624458274
  40     -0.95159198345334
  41     0.014062733251289
  42     0.061338086707338
  43    -0.028210561824312
  44      0.12052086293346
  45    -6.749548036589e-05
  46     0.054069762458046
  47    -0.0017500003917801
  48    -0.006442156563279
  49      0.12076208587189
  50    -0.010690490671359
  51     0.052042464775613
  52    -0.0014100039924354
  53    0.0013561566942626
  54      0.13006125839343
  55      0.01105125585111
  56     0.056139180602344
  57    0.0029834910500409
  58    -0.0013571103959924
 Sym= A
 Ene=              11
 Spin= Alpha
 Occup=    0.00000
   1    -0.0085070872167128
   2    -0.016455254853867
   3     0.058144604989977
   4    -0.0060233931197382
   5    -0.060456427493841
   6     -0.45362986788444
   7     0.048727848001223
   8    -0.028337013378577
   9       2.9198840825354
  10    -0.017918561999613
  11     -0.71757596061291
  12      0.25706300002703
  13    0.00075426747834498
  14     0.039093707543141
  15    0.00077366428144221
  16    -0.00024988663588604
  17    -0.047838573492395
  18    0.0067186304256345
  19    0.0060668324597583
  20    -0.026474681676596
  21     0.030686880254741
  22       0.1129724963887
  23     -0.84825974921187
  24    -0.020217198352374
  25    -0.047912098200486
  26    -0.015232374830083
  27    -0.015207878453249
  28     0.015675008608839
  29      0.16487558807973
  30      0.22977607423079
  31     0.044366355248532
  32    0.00092076346263534
  33    -0.036851688744826
  34    -0.054270535869635
  35    -0.011809745943492
  36    -0.038335428273721
  37    -0.038002308309724
  38       0.0533124682428
  39     -0.10591156322718
  40     -0.23047618342137
  41    -0.0075721066778792
  42     0.060622950490322
  43     0.041331292260534
  44     0.076543520406713
  45      0.25398334142156
  46    -0.013959011658289
  47     0.046817714316948
  48     -0.26932985531339
  49     -0.83027547279739
  50      -1.4269822867767
  51     -0.01864225309811
  52      0.12647704223725
  53      0.12700216016446
  54       0.7513807293078
  55       1.1804021189485
  56     0.027666743887606
  57     -0.25857852703278
  58    0.00024239847859811
 Sym= A
 Ene=              12
 Spin= Alpha
 Occup=    0.00000
   1     0.001182835201993
   2    0.0021490615283321
   3    -0.013464864565016
   4    0.0076407797250128
   5     -0.43209202478766
   6     0.060746872091502
   7    -0.024657990500853
   8       2.8977580863382
   9     0.046159671682126
  10      0.23949044052364
  11     -0.03633726802887
  12     0.018034440771023
  13      0.14731916167633
  14     -0.75326573333223
  15    -0.0013140169530466
  16    -0.0026401451619519
  17     0.017512605361317
  18    0.0012289386782977
  19    -0.021404825255581
  20    -0.0075689700016642
  21    -0.011585111125408
  22     -0.82976145228713
  23     -0.11824479394223
  24    -0.014354396245988
  25    -0.014252459607831
  26     0.023870956845818
  27    -0.009778055120359
  28      -0.0558610984332
  29     0.030761752809091
  30      0.12891453492526
  31    -0.017523657219484
  32     0.074681638911272
  33      -0.0151420667825
  34     -0.15481195810148
  35     -0.25773294612297
  36    -0.031203371397194
  37    -0.015640738987025
  38    -0.053181277235046
  39      0.12213354532574
  40      0.13569815402594
  41     0.049522524554498
  42    -0.0039638067731513
  43     0.044353860607046
  44      0.93280493129363
  45       1.4959235094266
  46     0.029972377462545
  47      0.18649564104407
  48      0.10616252802957
  49      -0.4026764396383
  50     -0.54467321618965
  51      -0.0240459483097
  52     -0.21922720513547
  53      0.18895438944136
  54     -0.52645595948448
  55     -0.96124769882805
  56    0.0026504667696948
  57    -0.087821124965278
  58     -0.20412270895706
 Sym= A
 Ene=              13
 Spin= Alpha
 Occup=    0.00000
   1    -0.028271579807733
   2    -0.036777459791915
   3      0.53572241706093
   4     -0.57294860134338
   5    0.00021467230425119
   6     0.025867238504736
   7        3.368577223134
   8    0.0054439972494325
   9    -0.028583353869233
  10     -0.20573670174758
  11    -0.014483861443797
  12     0.036994894519193
  13      0.39472174674859
  14    -0.0088499910138022
  15     0.018083400177608
  16     -0.03098344155938
  17      -2.2205968593784
  18      0.29053767416091
  19    0.0014083060805754
  20    0.0022148184198634
  21       1.5364118515631
  22    -0.0010135448193164
  23     0.015801555173252
  24     0.063101360022558
  25    -0.0033440444623161
  26    -0.0030005063340324
  27     -0.11024454782649
  28    -0.0015338844951224
  29     0.042401326123084
  30     -0.30350901170053
  31    -0.0085631862460989
  32    -0.0010675841019552
  33     0.027783072944831
  34     0.047320208027296
  35     -0.29712782244991
  36    -0.0097676051541985
  37     -0.02240747941444
  38    -0.017328314159125
  39     0.045782681858463
  40     -0.29410173479405
  41    -0.0089742266480024
  42     0.024918644751863
  43    -0.013312092465033
  44      0.26587523283336
  45       0.6842635326102
  46     -0.14603593546487
  47      0.10871347745812
  48     0.028388628671722
  49      0.24091701066184
  50      0.69315729509864
  51     -0.15060742739158
  52     -0.03871462633528
  53    -0.089319679879526
  54      0.27134044539202
  55      0.67247286961442
  56     -0.14112070991324
  57     -0.07025862910597
  58     0.092494488222563
 Sym= A
 Ene=              14
 Spin= Alpha
 Occup=    0.00000
   1    -0.0034746118798271
   2    -0.0047416987486318
   3     0.090344298020204
   4    0.0058574230289432
   5    -0.031943964489861
   6    0.0088190804639811
   7     0.058117297043434
   8     -0.86905832491465
   9      0.10484386037211
  10    -0.014980768120533
  11    -0.0091941392401876
  12     0.027453677425865
  13    -0.0071155820728145
  14     0.040562568540163
  15      0.01407689964775
  16      0.02705887022796
  17     -0.10472346757991
  18    -0.020266551178399
  19     -0.46280196007249
  20    -0.055912203524807
  21     0.099912083337463
  22       2.9542510672801
  23     0.032024884432672
  24     -0.10434704082412
  25    0.0038175808482666
  26     -0.23249637373094
  27    -0.056624489996622
  28       0.6889634929943
  29     0.049811607780702
  30    -0.027481871935961
  31    -0.022492750933796
  32     -0.27779058316634
  33    -0.019504245125601
  34      0.77608660622455
  35       1.3394890011793
  36    -0.025478676937252
  37     0.069516314041683
  38      0.17344584888901
  39     -0.81227841391495
  40      -1.3321131567636
  41     0.026882954070125
  42     0.066212197660497
  43     -0.22561524537819
  44     -0.16339422097984
  45     -0.20772077293845
  46     0.044884938817919
  47    -0.030893112365074
  48    -0.016893536824368
  49     0.027655175294771
  50    -0.026662094070786
  51    -0.034974950659979
  52     0.066531248876247
  53     -0.02515561047839
  54      0.12614019596047
  55      0.26093291436065
  56    -0.013449241916813
  57     0.023367246329439
  58     0.065300287325132
 Sym= A
 Ene=              15
 Spin= Alpha
 Occup=    0.00000
   1    0.0042375029024167
   2    0.0078449059871221
   3    -0.056461339979208
   4    0.0019265359847262
   5    -0.0062075257740634
   6    -0.034985421356291
   7    -0.034507028279852
   8    -0.097859909513701
   9     -0.87998027619355
  10     -0.02827118935412
  11     0.035951981875919
  12     -0.01538154181671
  13    -0.013096522176939
  14     0.015829652576734
  15     -0.01344746678293
  16    -0.026058785644148
  17     0.098755136542983
  18     0.015316027081045
  19     0.070533387952049
  20     -0.45395120075634
  21    -0.050015720965821
  22    -0.031729498374731
  23       2.9854550393386
  24      0.25780549158253
  25      0.67795756897903
  26     -0.13795120481087
  27      0.12516198189139
  28     0.026251537598946
  29     -0.95393916890203
  30      -1.5636897014068
  31     0.047466906548155
  32     0.027913347142544