[Molden Format]
 Molden2AIM, Version 5.0.2 (10/09/2020)           Time: Tue Apr  6 00:21:31 2021

[Atoms] AU
  O      1    8        0.0000000000        0.0000000000        0.0000000000
  O      2    8        0.0000000000        0.0000000000        2.7620617201
  H      3    1        1.7632934844        0.0000000000       -0.4771921162
  H      4    1        1.6569538763        0.6030818860        3.2392538382
[GTO]
    1    0
 S    6  1.0
    0.5484672000D+04    0.1831100116D-02
    0.8252350000D+03    0.1395010088D-01
    0.1880470000D+03    0.6844510432D-01
    0.5296450000D+02    0.2327140147D+00
    0.1689757000D+02    0.4701930297D+00
    0.5799635000D+01    0.3585210226D+00
 S    3  1.0
    0.1553962000D+02   -0.1107766479D+00
    0.3599934000D+01   -0.1480255295D+00
    0.1013762000D+01    0.1130766406D+01
 S    1  1.0
    0.2700058000D+00    0.1000000000D+01
 P    3  1.0
    0.1553962000D+02    0.7087426029D-01
    0.3599934000D+01    0.3397528096D+00
    0.1013762000D+01    0.7271585926D+00
 P    1  1.0
    0.2700058000D+00    0.1000000000D+01
 D    1  1.0
    0.8000000000D+00    0.1000000000D+01

    2    0
 S    6  1.0
    0.5484672000D+04    0.1831100116D-02
    0.8252350000D+03    0.1395010088D-01
    0.1880470000D+03    0.6844510432D-01
    0.5296450000D+02    0.2327140147D+00
    0.1689757000D+02    0.4701930297D+00
    0.5799635000D+01    0.3585210226D+00
 S    3  1.0
    0.1553962000D+02   -0.1107766479D+00
    0.3599934000D+01   -0.1480255295D+00
    0.1013762000D+01    0.1130766406D+01
 S    1  1.0
    0.2700058000D+00    0.1000000000D+01
 P    3  1.0
    0.1553962000D+02    0.7087426029D-01
    0.3599934000D+01    0.3397528096D+00
    0.1013762000D+01    0.7271585926D+00
 P    1  1.0
    0.2700058000D+00    0.1000000000D+01
 D    1  1.0
    0.8000000000D+00    0.1000000000D+01

    3    0
 S    3  1.0
    0.1873114000D+02    0.3349460926D-01
    0.2825394000D+01    0.2347270649D+00
    0.6401217000D+00    0.8137572250D+00
 S    1  1.0
    0.1612778000D+00    0.1000000000D+01
 P    1  1.0
    0.1100000000D+01    0.1000000000D+01

    4    0
 S    3  1.0
    0.1873114000D+02    0.3349460926D-01
    0.2825394000D+01    0.2347270649D+00
    0.6401217000D+00    0.8137572250D+00
 S    1  1.0
    0.1612778000D+00    0.1000000000D+01
 P    1  1.0
    0.1100000000D+01    0.1000000000D+01

[MO]
 Sym= A
 Ene=          1.00000000
 Spin= Alpha
 Occup=        2.00000200
    1        1.0108935800
    2       -0.0202210240
    3       -0.0494443720
    4        0.0032352900
    5        0.0000677580
    6        0.0023858520
    7        0.0007539570
    8       -0.0000586410
    9       -0.0015142520
   10        0.0009369070
   11        0.0006177660
   12       -0.0015546730
   13       -0.0000428220
   14       -0.0002250500
   15       -0.0000390610
   16        0.0006746630
   17       -0.0028538930
   18        0.0043117340
   19       -0.0002483030
   20       -0.0000733100
   21        0.0074104900
   22       -0.0002156130
   23       -0.0000102140
   24        0.0008907990
   25        0.0008521510
   26        0.0006265800
   27       -0.0014787310
   28        0.0001493030
   29        0.0002356860
   30        0.0001154220
   31       -0.0098389340
   32        0.0027806760
   33        0.0031385880
   34       -0.0000001650
   35       -0.0005735610
   36       -0.0003040580
   37        0.0002489480
   38        0.0001451610
   39        0.0000593790
   40        0.0002216090
 Sym= A
 Ene=          2.00000000
 Spin= Alpha
 Occup=        2.00000200
    1        0.0006746900
    2       -0.0028541690
    3        0.0043114320
    4       -0.0002585030
    5       -0.0000161400
    6       -0.0074105580
    7       -0.0002062090
    8       -0.0000639100
    9       -0.0008908180
   10        0.0009095530
   11        0.0005691980
   12       -0.0014787510
   13       -0.0000304170
   14       -0.0002615880
   15        0.0000282870
   16        1.0108936200
   17       -0.0202211750
   18       -0.0494445240
   19        0.0030641810
   20        0.0010421700
   21       -0.0023857520
   22        0.0006878660
   23        0.0003127930
   24        0.0015142890
   25        0.0008760060
   26        0.0006786870
   27       -0.0015546940
   28        0.0001513340
   29        0.0002250640
   30        0.0000399140
   31       -0.0003039650
   32        0.0002489610
   33        0.0001558940
   34       -0.0000069160
   35       -0.0002216060
   36       -0.0098388470
   37        0.0027807920
   38        0.0029493370
   39        0.0010732640
   40        0.0005735600
 Sym= A
 Ene=          3.00000000
 Spin= Alpha
 Occup=        1.99999800
    1       -0.0571452840
    2        0.1973547660
    3        0.2331019340
    4       -0.1501937920
    5        0.6002766960
    6       -0.0761391430
    7       -0.0980092010
    8        0.4337546400
    9       -0.0558644420
   10       -0.0060436760
   11        0.0059326590
   12        0.0001110170
   13        0.0218727320
   14       -0.0037447330
   15        0.0061038780
   16        0.0048493730
   17       -0.0117952660
   18       -0.0204757590
   19        0.0080180200
   20       -0.0313292890
   21        0.0250732640
   22        0.0094526850
   23       -0.0503396830
   24        0.0249513830
   25       -0.0012503750
   26       -0.0007814740
   27        0.0020318490
   28       -0.0007179780
   29        0.0038706710
   30       -0.0124433790
   31       -0.0251218330
   32       -0.0375000980
   33       -0.0035055720
   34        0.0195594310
   35       -0.0024616710
   36       -0.0009255090
   37        0.0077968470
   38        0.0000193160
   39       -0.0016260680
   40        0.0006111660
 Sym= A
 Ene=          4.00000000
 Spin= Alpha
 Occup=        1.99999800
    1       -0.1156271530
    2        0.4029280730
    3        0.4650780340
    4       -0.3032540210
    5       -0.2966913910
    6       -0.1451648210
    7       -0.2027061520
    8       -0.2147606110
    9       -0.1090954000
   10       -0.0114725480
   11        0.0104009790
   12        0.0010715690
   13       -0.0108143910
   14       -0.0089196570
   15       -0.0034284010
   16        0.0117040670
   17       -0.0277308770
   18       -0.0551745780
   19        0.0065831780
   20        0.0109785230
   21        0.0465307960
   22        0.0077325560
   23        0.0173222400
   24        0.0486208980
   25       -0.0020490130
   26       -0.0014622930
   27        0.0035113040
   28        0.0003974070
   29        0.0097437880
   30        0.0072757250
   31       -0.0472842260
   32       -0.0750859310
   33       -0.0071284280
   34       -0.0098021340
   35       -0.0045750930
   36        0.0209466810
   37        0.0290609750
   38       -0.0007081450
   39        0.0001208980
   40        0.0023737340
 Sym= A
 Ene=          5.00000000
 Spin= Alpha
 Occup=        2.00000100
    1        0.0048482150
    2       -0.0117924570
    3       -0.0204716600
    4       -0.0031749080
    5        0.0321777250
    6       -0.0250734280
    7       -0.0083332850
    8        0.0505332920
    9       -0.0249498960
   10       -0.0015947020
   11       -0.0004364420
   12        0.0020311440
   13        0.0003751900
   14        0.0006200030
   15       -0.0130175020
   16       -0.0571371520
   17        0.1973250370
   18        0.2330635030
   19        0.0642239660
   20       -0.6154552910
   21        0.0761318330
   22        0.0562885290
   23       -0.4411250880
   24        0.0558570230
   25        0.0075357050
   26       -0.0076457680
   27        0.0001100640
   28       -0.0211996650
   29        0.0014309590
   30        0.0070173780
   31       -0.0009234810
   32        0.0077959030
   33       -0.0005385610
   34        0.0015348200
   35       -0.0006109000
   36       -0.0251044970
   37       -0.0374882290
   38        0.0033952060
   39       -0.0195795310
   40        0.0024609120
 Sym= A
 Ene=          6.00000000
 Spin= Alpha
 Occup=        2.00000200
    1        0.0117049340
    2       -0.0277336790
    3       -0.0551787830
    4        0.0099454840
    5       -0.0080594480
    6       -0.0465335940
    7        0.0131931830
    8       -0.0136261020
    9       -0.0486230830
   10       -0.0017594130
   11       -0.0017518680
   12        0.0035112810
   13       -0.0005224840
   14       -0.0116446470
   15        0.0035028920
   16       -0.1156315420
   17        0.4029445620
   18        0.4650987780
   19       -0.3864379640
   20        0.1750196240
   21        0.1451723600
   22       -0.2639308910
   23        0.1324374300
   24        0.1091011100
   25       -0.0149334250
   26        0.0138618500
   27        0.0010715750
   28        0.0001646780
   29        0.0095547410
   30       -0.0001703690
   31        0.0209488020
   32        0.0290634670
   33       -0.0006234730
   34       -0.0003558500
   35       -0.0023737290
   36       -0.0472892380
   37       -0.0750909450
   38       -0.0100501440
   39        0.0067710660
   40        0.0045754260
 Sym= A
 Ene=          7.00000000
 Spin= Alpha
 Occup=        2.00000000
    1       -0.0321081670
    2        0.1369555640
    3        0.0822225420
    4        0.0236661910
    5       -0.0001105070
    6        0.3944269470
    7        0.0371581900
    8        0.0014417260
    9        0.2468025790
   10       -0.0190077160
   11       -0.0180783160
   12        0.0370860270
   13        0.0005544560
   14        0.0182531730
   15        0.0011174870
   16       -0.0321066120
   17        0.1369512080
   18        0.0822206750
   19        0.0221876600
   20        0.0081910930
   21       -0.3944278810
   22        0.0354021310
   23        0.0113502720
   24       -0.2468017420
   25       -0.0185906220
   26       -0.0184958750
   27        0.0370864980
   28       -0.0007699550
   29       -0.0175346590
   30       -0.0051931820
   31       -0.0241970490
   32       -0.0421139160
   33       -0.0009688620
   34       -0.0001954640
   35        0.0103357240
   36       -0.0242068970
   37       -0.0421189370
   38       -0.0009764180
   39       -0.0001479690
   40       -0.0103353940
 Sym= A
 Ene=          8.00000000
 Spin= Alpha
 Occup=        2.00000300
    1       -0.0570758250
    2        0.2208382590
    3        0.1454442730
    4        0.4411546860
    5       -0.0017681770
    6       -0.0970631930
    7        0.2571733850
    8       -0.0003344050
    9       -0.0293390280
   10        0.0277508990
   11       -0.0116585430
   12       -0.0160923570
   13        0.0004671350
   14       -0.0009853590
   15        0.0002627700
   16        0.0059672210
   17       -0.0144432150
   18       -0.0217100140
   19       -0.0183049280
   20        0.0006678910
   21        0.0448803580
   22       -0.0271212860
   23        0.0025252980
   24        0.0458209320
   25       -0.0002740890
   26       -0.0004080760
   27        0.0006821640
   28       -0.0005559120
   29       -0.0086393240
   30        0.0000942690
   31        0.3139488110
   32        0.1214392910
   33       -0.0326313240
   34        0.0003378640
   35        0.0095411130
   36       -0.0122704030
   37       -0.0124998290
   38        0.0000566130
   39        0.0002890270
   40        0.0012454110
 Sym= A
 Ene=          9.00000000
 Spin= Alpha
 Occup=        1.99999900
    1        0.0059659820
    2       -0.0144387590
    3       -0.0217045810
    4       -0.0169848280
    5       -0.0068829500
    6       -0.0448680920
    7       -0.0246286170
    8       -0.0116466770
    9       -0.0458139370
   10       -0.0006011340
   11       -0.0000824020
   12        0.0006835360
   13        0.0004751120
   14        0.0080869040
   15        0.0030443210
   16       -0.0570753830
   17        0.2208376330
   18        0.1454409370
   19        0.4139399140
   20        0.1525720080
   21        0.0970495570
   22        0.2415470570
   23        0.0882914480
   24        0.0293301410
   25        0.0233998900
   26       -0.0073086340
   27       -0.0160912580
   28        0.0142677940
   29        0.0008353700
   30        0.0005838660
   31       -0.0122781840
   32       -0.0125042510
   33        0.0001526350
   34       -0.0002520330
   35       -0.0012453690
   36        0.3139493610
   37        0.1214392320
   38       -0.0305484480
   39       -0.0114767180
   40       -0.0095414910
 Sym= A
 Ene=         10.00000000
 Spin= Alpha
 Occup=        0.00000000
    1       -0.0611403800
    2        0.2747737690
    3        0.1107227120
    4       -0.0122859140
    5        0.0011284440
    6        0.6066624960
    7        0.0278404840
    8        0.0042298280
    9        0.3639269740
   10       -0.0068744220
   11       -0.0016912470
   12        0.0541079250
   13        0.0005502380
   14        0.0248562650
   15        0.0019407990
   16        0.0611517050
   17       -0.2748873150
   18       -0.1107294860
   19        0.0109470770
   20        0.0050908980
   21        0.6066345200
   22       -0.0275499580
   23       -0.0053446490
   24        0.3639788870
   25        0.0058620180
   26        0.0025168770
   27       -0.0539436840
   28        0.0023471850
   29        0.0239474420
   30        0.0066981120
   31        0.0145764880
   32       -0.0113036220
   33       -0.0075391840
   34       -0.0000458720
   35        0.0038297930
   36       -0.0145379380
   37        0.0113306250
   38        0.0068982560
   39        0.0023659040
   40        0.0036899950
 Sym= A
 Ene=         11.00000000
 Spin= Alpha
 Occup=        0.00000000
    1        0.0811564930
    2       -0.3762278290
    3       -0.3120605520
    4       -0.5730077280
    5        0.0016017990
    6        0.1845684380
    7       -0.4450409910
    8        0.0000704990
    9        0.1183710180
   10       -0.0718868760
   11        0.0151079150
   12        0.0201218360
   13       -0.0005929220
   14        0.0186605280
   15        0.0001689830
   16        0.0046154870
   17       -0.0142027400
   18       -0.0442328630
   19        0.0480487070
   20        0.0016906260
   21        0.0024920800
   22        0.0307109280
   23       -0.0036753560
   24       -0.0041642090
   25        0.0071360970
   26        0.0039715380
   27       -0.0053711440
   28       -0.0004375290
   29       -0.0000550880
   30       -0.0001609230
   31        1.0190702800
   32        0.4003862990
   33       -0.0647299950
   34        0.0007213430
   35        0.0212032090
   36       -0.0259622730
   37        0.0101282750
   38        0.0002701260
   39        0.0003661320
   40       -0.0017212970
 Sym= A
 Ene=         12.00000000
 Spin= Alpha
 Occup=        0.00000000
    1        0.0046255120
    2       -0.0141808300
    3       -0.0444238600
    4        0.0458565180
    5        0.0148442620
    6       -0.0025373630
    7        0.0273565970
    8        0.0140395720
    9        0.0042359350
   10        0.0066034240
   11        0.0046417080
   12       -0.0054527080
   13        0.0015111740
   14        0.0000503070
   15       -0.0001702320
   16        0.0811073350
   17       -0.3759851830
   18       -0.3116635770
   19       -0.5376671090
   20       -0.1972658700
   21       -0.1845102480
   22       -0.4181239790
   23       -0.1525651070
   24       -0.1183220830
   25       -0.0622326880
   26        0.0051192270
   27        0.0202446360
   28       -0.0316810090
   29       -0.0177442420
   30       -0.0062467630
   31       -0.0259323180
   32        0.0103895760
   33        0.0003986200
   34       -0.0002406780
   35        0.0017812960
   36        1.0195211500
   37        0.3995330060
   38       -0.0602335500
   39       -0.0222953820
   40       -0.0211433010
 Sym= A
 Ene=         13.00000000
 Spin= Alpha
 Occup=       -0.00000000
    1       -0.0355479120
    2       -0.3627010180
    3        1.1246779000
    4       -0.0926389520
    5       -0.7844847170
    6       -0.1394309160
    7        0.2161983670
    8        0.9004359210
    9        0.5479857370
   10       -0.2219698130
   11       -0.2127125400
   12        0.0783829540
   13        0.0114940420
   14        0.0953977640
   15       -0.4783489790
   16        0.0367403290
   17        0.0316367550
   18       -0.6338515610
   19       -0.0000454120
   20       -0.0180010790
   21        0.0374324390
   22       -0.0484105370
   23       -0.0796586680
   24        0.4350357980
   25        0.1004618840
   26        0.1071418170
   27       -0.0290279480
   28       -0.0027717490
   29        0.0206935370
   30       -0.0434301600
   31       -0.0508748230
   32       -0.1569804400
   33       -0.0165746550
   34       -0.0255492760
   35       -0.0150661750
   36        0.0380752300
   37       -0.0479656430
   38        0.0103479770
   39        0.0010810110
   40       -0.0076169760
 Sym= A
 Ene=         14.00000000
 Spin= Alpha
 Occup=       -0.00000000
    1       -0.1004664540
    2       -0.3435511150
    3        1.8986792900
    4       -0.6750340400
    5        0.0682403040
    6       -0.2953349380
    7        1.3382514900
    8       -0.0706971050
    9        0.7210289550
   10       -0.3355813360
   11       -0.4521046520
   12        0.1320714830
   13       -0.0597444220
   14       -0.5191318570
   15        0.1389657640
   16        0.0519833200
   17        0.0188622560
   18       -0.8713660570
   19       -0.0249048990
   20        0.0033862020
   21        0.0711908910
   22       -0.1267390380
   23       -0.0201781420
   24        0.5702337710
   25        0.1440431370
   26        0.1453433220
   27       -0.0500431750
   28       -0.0010903890
   29       -0.0309253180
   30        0.0167106850
   31       -0.5551272450
   32       -0.5402571530
   33        0.0467094410
   34        0.0122184460
   35        0.0374172770
   36        0.0539023480
   37       -0.0260748490
   38        0.0110001030
   39        0.0041480830
   40       -0.0018497790
 Sym= A
 Ene=         15.00000000
 Spin= Alpha
 Occup=       -0.00000000
    1       -0.0568427850
    2       -1.1309794800
    3        2.9362094300
    4       -0.1352899810
    5        0.1218246810
    6       -0.3485401570
    7        0.5615885860
    8       -0.1230454280
    9        1.3075776800
   10       -0.2171898410
   11       -0.3553440940
   12       -0.1302296180
   13        0.0132166000
   14        0.7126346400
   15        0.2364804570
   16        0.0899993340
   17        0.1286758490
   18       -1.6683576100
   19        0.0207369440
   20        0.0135498870
   21        0.0509046350
   22       -0.3065892300
   23       -0.0593086900
   24        1.0179377700
   25        0.2100503460
   26        0.2654228030
   27        0.0076045510
   28       -0.0283272530
   29        0.1172226970
   30        0.0281770350
   31       -0.1840802940
   32       -0.4917923040
   33       -0.0199917610
   34        0.0056275750
   35       -0.1181636300
   36        0.1622688740
   37       -0.0114020910
   38        0.0188787320
   39        0.0043185640
   40       -0.0461764340
 Sym= A
 Ene=         16.00000000
 Spin= Alpha
 Occup=       -0.00000000
    1       -0.0433011420
    2        0.0417670320
    3        0.2768094970
    4       -0.3205787660
    5       -0.0240697770
    6        0.5713068860
    7        0.4668945800
    8        0.0374026120
    9       -0.8515035050
   10       -0.4665878230
   11       -0.4180828750
   12        0.3988931110
   13        0.0093230990
   14        0.4799656760
   15        0.0742403470
   16        0.0036076680
   17        0.1104568860
   18       -0.0071665740
   19       -0.0130491060
   20       -0.0013631570
   21       -0.0185700280
   22       -0.2696221690
   23       -0.0633801560
   24       -0.1595461160
   25        0.0482178260
   26        0.0608745610
   27       -0.0590179690
   28       -0.0075020890
   29        0.0587644010
   30        0.0100293020
   31        0.0792832950
   32       -0.2658278880
   33       -0.1428081970
   34        0.0001901030
   35        0.0103065230
   36        0.1189206620
   37        0.1458141260
   38        0.0055873420
   39        0.0016227120
   40       -0.0084809640
 Sym= A
 Ene=         17.00000000
 Spin= Alpha
 Occup=       -0.00000000
    1        0.0114609870
    2       -0.3988790510
    3        0.5060175790
    4       -0.0860954110
    5       -0.0462396940
    6        0.3235595460
    7        0.0646362650
    8        0.0574235570
    9       -0.5281455470
   10       -0.7286295550
   11        0.8548980880
   12       -0.4174594480
   13       -0.1006899940
   14       -0.0733118530
   15        0.0531647370
   16       -0.0185650050
   17        0.0625553040
   18        0.1971353630
   19       -0.0173483440
   20       -0.0009727830
   21       -0.0822414530
   22        0.0276861970
   23       -0.0303022650
   24       -0.1588698520
   25       -0.0182103560
   26       -0.0622944210
   27        0.0548777790
   28        0.0032343960
   29       -0.0229557840
   30        0.0080734610
   31        0.2831489280
   32       -0.3371678470
   33       -0.1003912330
   34        0.0135353470
   35        0.0561275170
   36       -0.0026365880
   37        0.0555694080
   38       -0.0032221140
   39        0.0026777320
   40       -0.0018373830
 Sym= A
 Ene=         18.00000000
 Spin= Alpha
 Occup=       -0.00000000
    1       -0.0585918420
    2       -1.3170017800
    3        3.3453387900
    4        0.3636287650
    5        0.0595619430
    6        0.2517776410
    7        0.2465657340
    8       -0.0721002450
    9        0.3250259650
   10        0.0126136410
   11       -0.8569730690
   12        0.0344346060
   13       -0.0459055400
   14       -0.5383540170
   15       -0.0303679680
   16        0.0698375110
   17        0.1973212220
   18       -1.2838866000
   19        0.0082937760
   20        0.0038774920
   21       -0.0001394720
   22        0.1116588580
   23        0.0230402770
   24        0.8796455000
   25        0.2308013990
   26        0.2515554360
   27       -0.0797336330
   28       -0.0024879340
   29       -0.0278546560
   30       -0.0036088100
   31       -0.6477217370
   32       -0.6268621750
   33        0.1971271090
   34        0.0056908310
   35       -0.0210447950
   36        0.0048433570
   37       -0.0252373070
   38        0.0218917710
   39        0.0046818480
   40       -0.0176610190
 Sym= A
 Ene=         19.00000000
 Spin= Alpha
 Occup=        0.00000000
    1       -0.0061105900
    2       -0.1213300690
    3        0.2947329470
    4       -0.0074490330
    5        0.1066944680
    6       -0.0230592030
    7       -0.0792306690
    8       -0.1392954400
    9        0.2171229100
   10       -0.2803150500
   11        0.0461590300
   12        0.1329271550
   13        0.9984729130
   14       -0.0385069370
   15       -0.1924565690
   16        0.0133109430
   17        0.0044663780
   18       -0.2028512470
   19       -0.0047547730
   20        0.0018284720
   21        0.0197569740
   22        0.0584934490
   23        0.0744360850
   24        0.1879890140
   25        0.0507574330
   26        0.0376520720
   27       -0.0342388330
   28       -0.0224596840
   29       -0.0096427120
   30       -0.0234298850
   31        0.1247041370
   32        0.0057973270
   33       -0.0350937790
   34       -0.1305333550
   35        0.0210182390
   36       -0.0158807110
   37       -0.0538351400
   38        0.0039650850
   39        0.0041495720
   40       -0.0004952600
 Sym= A
 Ene=         20.00000000
 Spin= Alpha
 Occup=        0.00000000
    1       -0.4304502780
    2        0.0776539910
    3        3.4552612800
    4       -0.2153233310
    5        0.0023544740
    6       -0.0174206940
    7        0.2464926020
    8       -0.0021298030
    9       -0.0093069940
   10       -1.4309724500
   11       -1.4710553800
   12       -1.7878084900
   13        0.0389410040
   14        0.0702660240
   15       -0.0243884440
   16       -0.0007263630
   17       -0.0357265430
   18       -0.2466023150
   19       -0.0102378350
   20       -0.0011634350
   21       -0.0330321490
   22       -0.0374356390
   23       -0.0073064490
   24       -0.0806281600
   25       -0.0921187550
   26       -0.0801327060
   27        0.3347371940
   28       -0.0126020550
   29       -0.0069349040
   30       -0.0106399430
   31        0.1502926930
   32       -0.5610203000
   33       -0.3405531790
   34       -0.0059117130
   35        0.0626436890
   36        0.0675724440
   37       -0.0015972580
   38       -0.0192052270
   39       -0.0068546040
   40        0.0293784380
 Sym= A
 Ene=         21.00000000
 Spin= Alpha
 Occup=       -0.00000000
    1       -0.0200960640
    2       -0.0886252630
    3        0.3559893460
    4       -0.0750996170
    5        0.5010627690
    6       -0.0623271170
    7       -0.0053634740
    8       -0.6576495520
    9        0.2843992340
   10       -0.3031127950
   11       -0.0285960880
   12        0.1100381110
   13       -0.2475051770
   14        0.1340176720
   15       -0.8502116610
   16        0.0149418270
   17       -0.0016543060
   18       -0.2381599680
   19       -0.0004496510
   20       -0.0060720930
   21        0.0279712280
   22        0.0156456960
   23        0.3283107060
   24        0.2015975710
   25        0.0560939270
   26        0.0397982800
   27       -0.0310645460
   28        0.0154523380
   29        0.0157927570
   30       -0.1252373300
   31        0.1480443650
   32       -0.0069568680
   33       -0.0643854570
   34        0.0162187250
   35        0.0062136880
   36       -0.0467222670
   37       -0.0306368000
   38        0.0117929310
   39       -0.0077357520
   40        0.0015892390
 Sym= A
 Ene=         22.00000000
 Spin= Alpha
 Occup=       -0.00000000
    1       -0.0976970580
    2        0.0600281660
    3        0.6202526710
    4        0.2465315620
    5       -0.0120291860
    6       -0.2833128430
    7       -1.2396821100
    8        0.0246149810
    9        1.2599133500
   10       -1.4660644700
   11       -0.2796297260
   12        0.5986534800
   13       -0.1201581530
   14        0.0782093160
   15        0.1927682370
   16        0.0625185130
   17       -0.0528146990
   18       -0.9016944130
   19        0.0111231440
   20        0.0053463190
   21        0.1473118700
   22        0.3145416650
   23       -0.0041993220
   24        0.7242375870
   25        0.1959314960
   26        0.1465457610
   27       -0.0989167810
   28        0.0140326350
   29       -0.0384072480
   30        0.0291637030
   31        1.0455776900
   32        0.5248382720
   33       -0.2947159800
   34        0.0206751470
   35        0.1081969730
   36       -0.0874786610
   37       -0.1671807750
   38        0.0228222620
   39        0.0144000060
   40       -0.0005099290
 Sym= A
 Ene=         23.00000000
 Spin= Alpha
 Occup=        0.00000000
    1        0.0364113010
    2        0.0312475390
    3       -0.6287054140
    4       -0.0063986840
    5        0.0178628710
    6       -0.0367280550
    7       -0.0666979260
    8        0.0586966370
    9       -0.4349435650
   10        0.0998792690
   11        0.1070095460
   12       -0.0298092360
   13       -0.0003366980
   14       -0.0033503170
   15       -0.0484895980
   16       -0.0349924480
   17       -0.3593864150
   18        1.1113152300
   19       -0.3483213870
   20        0.7097647180
   21        0.1398433780
   22        0.4966455950
   23       -0.7789070250
   24       -0.5491897990
   25       -0.2118995790
   26       -0.2174261730
   27        0.0770958340
   28       -0.0132170730
   29        0.0784024470
   30       -0.4807019230
   31        0.0352174980
   32       -0.0499271190
   33        0.0106956430
   34        0.0023802950
   35        0.0076074550
   36       -0.0475787270
   37       -0.1485718520
   38       -0.0240088510
   39        0.0186052100
   40        0.0142964500
 Sym= A
 Ene=         24.00000000
 Spin= Alpha
 Occup=       -0.00000000
    1        0.0525226430
    2        0.0192699080
    3       -0.8813048410
    4       -0.0206896520
    5       -0.0115131410
    6       -0.0719549230
    7       -0.1239640810
    8       -0.0237681090
    9       -0.5780643920
   10        0.1461657570
   11        0.1477239250
   12       -0.0517573440
   13        0.0004348330
   14        0.0242396300
   15        0.0260105320
   16       -0.1011024050
   17       -0.3499873830
   18        1.9178522600
   19       -0.6089605800
   20       -0.2903367020
   21        0.2980988070
   22        1.2303416600
   23        0.5190817680
   24       -0.7325597660
   25       -0.3846368280
   26       -0.4090359690
   27        0.1307347720
   28        0.0893230500
   29        0.4479006420
   30        0.3062981520
   31        0.0526102400
   32       -0.0272863160
   33        0.0126815730
   34       -0.0003208660
   35        0.0016141230
   36       -0.5550421700
   37       -0.5413164450
   38        0.0477831880
   39        0.0032903510
   40       -0.0370965270
 Sym= A
 Ene=         25.00000000
 Spin= Alpha
 Occup=       -0.00000000
    1        0.0900795990
    2        0.1294843020
    3       -1.6705530700
    4        0.0249198780
    5       -0.0059699250
    6       -0.0506656200
    7       -0.3117120020
    8       -0.0479904110
    9       -1.0187802600
   10        0.2002926780
   11        0.2760247250
   12        0.0076453030
   13        0.0013333580
   14       -0.1222688950
   15       -0.0137183670
   16       -0.0573255750
   17       -1.1320687100
   18        2.9455526900
   19       -0.0889904450
   20       -0.1578445370
   21        0.3485834480
   22        0.4954582110
   23        0.3053458920
   24       -1.3057465100
   25       -0.2268957960
   26       -0.3468620660
   27       -0.1318065650
   28        0.0404663400
   29       -0.7490403020
   30       -0.0213212520
   31        0.1633220190
   32       -0.0106158200
   33        0.0200120510