[Molden Format]
 Molden2AIM, Version 5.0.2 (10/09/2020)           Time: Tue Apr  6 00:21:31 2021

[Atoms] AU
  O      1    8        0.0000000000        0.0000000000        0.0000000000
  O      2    8        0.0000000000        0.0000000000        2.7620617201
  H      3    1        1.7632934844        0.0000000000       -0.4771921162
  H      4    1        0.6030818860        1.6569538668        3.2392538382
[GTO]
    1    0
 S    6  1.0
    0.5484672000D+04    0.1831100116D-02
    0.8252350000D+03    0.1395010088D-01
    0.1880470000D+03    0.6844510432D-01
    0.5296450000D+02    0.2327140147D+00
    0.1689757000D+02    0.4701930297D+00
    0.5799635000D+01    0.3585210226D+00
 S    3  1.0
    0.1553962000D+02   -0.1107766479D+00
    0.3599934000D+01   -0.1480255295D+00
    0.1013762000D+01    0.1130766406D+01
 S    1  1.0
    0.2700058000D+00    0.1000000000D+01
 P    3  1.0
    0.1553962000D+02    0.7087426029D-01
    0.3599934000D+01    0.3397528096D+00
    0.1013762000D+01    0.7271585926D+00
 P    1  1.0
    0.2700058000D+00    0.1000000000D+01
 D    1  1.0
    0.8000000000D+00    0.1000000000D+01

    2    0
 S    6  1.0
    0.5484672000D+04    0.1831100116D-02
    0.8252350000D+03    0.1395010088D-01
    0.1880470000D+03    0.6844510432D-01
    0.5296450000D+02    0.2327140147D+00
    0.1689757000D+02    0.4701930297D+00
    0.5799635000D+01    0.3585210226D+00
 S    3  1.0
    0.1553962000D+02   -0.1107766479D+00
    0.3599934000D+01   -0.1480255295D+00
    0.1013762000D+01    0.1130766406D+01
 S    1  1.0
    0.2700058000D+00    0.1000000000D+01
 P    3  1.0
    0.1553962000D+02    0.7087426029D-01
    0.3599934000D+01    0.3397528096D+00
    0.1013762000D+01    0.7271585926D+00
 P    1  1.0
    0.2700058000D+00    0.1000000000D+01
 D    1  1.0
    0.8000000000D+00    0.1000000000D+01

    3    0
 S    3  1.0
    0.1873114000D+02    0.3349460926D-01
    0.2825394000D+01    0.2347270649D+00
    0.6401217000D+00    0.8137572250D+00
 S    1  1.0
    0.1612778000D+00    0.1000000000D+01
 P    1  1.0
    0.1100000000D+01    0.1000000000D+01

    4    0
 S    3  1.0
    0.1873114000D+02    0.3349460926D-01
    0.2825394000D+01    0.2347270649D+00
    0.6401217000D+00    0.8137572250D+00
 S    1  1.0
    0.1612778000D+00    0.1000000000D+01
 P    1  1.0
    0.1100000000D+01    0.1000000000D+01

[MO]
 Sym= A
 Ene=          1.00000000
 Spin= Alpha
 Occup=        2.00000000
    1        1.0108660600
    2       -0.0201016670
    3       -0.0493558380
    4        0.0031275490
    5        0.0002415970
    6        0.0024091700
    7        0.0008871000
    8       -0.0001580350
    9       -0.0015409340
   10        0.0010280150
   11        0.0005187850
   12       -0.0015468000
   13       -0.0000390190
   14       -0.0001679320
   15       -0.0001036930
   16        0.0006919290
   17       -0.0027933260
   18        0.0039387600
   19       -0.0001307540
   20       -0.0001996990
   21        0.0074200330
   22       -0.0002866610
   23       -0.0002451420
   24        0.0008499350
   25        0.0005510810
   26        0.0008990960
   27       -0.0014501760
   28        0.0001223890
   29        0.0000350740
   30        0.0003237490
   31       -0.0098526700
   32        0.0027130270
   33        0.0031552170
   34        0.0000118090
   35       -0.0005375580
   36       -0.0001906170
   37        0.0006337060
   38        0.0000410200
   39        0.0001225350
   40        0.0001771520
 Sym= A
 Ene=          2.00000000
 Spin= Alpha
 Occup=        2.00000000
    1        0.0006918680
    2       -0.0027936280
    3        0.0039385060
    4       -0.0002324260
    5       -0.0000547750
    6       -0.0074201060
    7       -0.0003284570
    8       -0.0001855130
    9       -0.0008499480
   10        0.0009270860
   11        0.0005231160
   12       -0.0014502010
   13       -0.0000351050
   14       -0.0003158160
   15        0.0000779090
   16        1.0108662200
   17       -0.0201022600
   18       -0.0493564450
   19        0.0012968230
   20        0.0028565840
   21       -0.0024091630
   22        0.0001550870
   23        0.0008876910
   24        0.0015409090
   25        0.0005570020
   26        0.0009898210
   27       -0.0015468230
   28        0.0001590890
   29        0.0001546120
   30        0.0001222890
   31       -0.0001906450
   32        0.0006337200
   33        0.0001285070
   34       -0.0000032810
   35       -0.0001771540
   36       -0.0098526630
   37        0.0027131080
   38        0.0010904910
   39        0.0029609200
   40        0.0005375590
 Sym= A
 Ene=          3.00000000
 Spin= Alpha
 Occup=        2.00000000
    1       -0.1064603910
    2        0.3672438440
    3        0.4321587310
    4       -0.2842746390
    5        0.3705464400
    6       -0.1439912230
    7       -0.1886905010
    8        0.2701084020
    9       -0.1041645620
   10       -0.0116826890
   11        0.0114814030
   12        0.0002012850
   13        0.0122917660
   14       -0.0071526790
   15        0.0043520090
   16        0.0085622710
   17       -0.0218165520
   18       -0.0320612860
   19        0.0170301820
   20       -0.0188011550
   21        0.0479957670
   22        0.0240133470
   23       -0.0323210930
   24        0.0478373570
   25       -0.0010453180
   26       -0.0026708830
   27        0.0037162040
   28       -0.0001742770
   29        0.0065946360
   30       -0.0072554940
   31       -0.0465817250
   32       -0.0637951430
   33       -0.0065127250
   34        0.0114750270
   35       -0.0041474660
   36       -0.0086569560
   37        0.0079454500
   38        0.0008852700
   39       -0.0008841750
   40        0.0010568710
 Sym= A
 Ene=          4.00000000
 Spin= Alpha
 Occup=        1.99999700
    1       -0.0722684020
    2        0.2539254270
    3        0.2868595710
    4       -0.1874131890
    5       -0.5537926620
    6       -0.0840164100
    7       -0.1260514190
    8       -0.4034585320
    9       -0.0652516250
   10       -0.0063155680
   11        0.0050780370
   12        0.0012375310
   13       -0.0198259800
   14       -0.0052915370
   15       -0.0073014010
   16        0.0087108870
   17       -0.0196455980
   18       -0.0463933960
   19        0.0061112880
   20        0.0144455120
   21        0.0264268720
   22        0.0088777670
   23        0.0238389370
   24        0.0288574210
   25       -0.0023769020
   26        0.0003451360
   27        0.0020317670
   28        0.0004649610
   29        0.0053529510
   30        0.0147291660
   31       -0.0278723820
   32       -0.0475687440
   33       -0.0043170860
   34       -0.0175846220
   35       -0.0022515260
   36        0.0281142370
   37        0.0306091700
   38       -0.0000058550
   39       -0.0003379160
   40        0.0016639380
 Sym= A
 Ene=          5.00000000
 Spin= Alpha
 Occup=        2.00000000
    1        0.0085537790
    2       -0.0217975780
    3       -0.0320196510
    4       -0.0118467080
    5        0.0224212940
    6       -0.0479713530
    7       -0.0221756610
    8        0.0336118350
    9       -0.0478098510
   10       -0.0025778310
   11       -0.0011362340
   12        0.0037140680
   13        0.0004707080
   14        0.0045764830
   15       -0.0086781940
   16       -0.1063926180
   17        0.3670078220
   18        0.4318954410
   19        0.2514910340
   20       -0.3938904570
   21        0.1439132470
   22        0.1896573010
   23       -0.2697191570
   24        0.1041055750
   25        0.0156209760
   26       -0.0158216310
   27        0.0002006560
   28        0.0008366190
   29       -0.0016511190
   30        0.0082078370
   31       -0.0086765660
   32        0.0079205810
   33       -0.0005280840
   34        0.0011338500
   35       -0.0010551490
   36       -0.0465670640
   37       -0.0637562700
   38        0.0085724850
   39       -0.0100452880
   40        0.0041457840
 Sym= A
 Ene=          6.00000000
 Spin= Alpha
 Occup=        1.99999900
    1        0.0087197700
    2       -0.0196691140
    3       -0.0464276000
    4        0.0156602950
    5        0.0008422120
    6       -0.0264785690
    7        0.0254217120
    8        0.0002321950
    9       -0.0289065280
   10        0.0002832580
   11       -0.0023176810
   12        0.0020344250
   13       -0.0006529730
   14       -0.0156673480
   15        0.0000004430
   16       -0.0723673140
   17        0.2542708360
   18        0.2872584370
   19       -0.5842571240
   20        0.0129759980
   21        0.0841583530
   22       -0.4220623760
   23        0.0193167870
   24        0.0653507410
   25       -0.0072774860
   26        0.0060415310
   27        0.0012359530
   28       -0.0194142810
   29        0.0086691150
   30        0.0024824560
   31        0.0281107950
   32        0.0306185730
   33       -0.0003196450
   34        0.0001124770
   35       -0.0016650280
   36       -0.0278900760
   37       -0.0476170910
   38       -0.0179945350
   39        0.0019459270
   40        0.0022546790
 Sym= A
 Ene=          7.00000000
 Spin= Alpha
 Occup=        2.00000500
    1       -0.0321084760
    2        0.1366009290
    3        0.0828857810
    4        0.0233632210
    5        0.0002808400
    6        0.3947407890
    7        0.0349837060
    8        0.0044722720
    9        0.2471158630
   10       -0.0200091920
   11       -0.0169869240
   12        0.0369961160
   13        0.0007587380
   14        0.0164858600
   15        0.0031566320
   16       -0.0321069420
   17        0.1365969980
   18        0.0828847760
   19        0.0082412880
   20        0.0218440810
   21       -0.3947416560
   22        0.0161586200
   23        0.0313360150
   24       -0.2471148360
   25       -0.0169182630
   26       -0.0200783830
   27        0.0369966460
   28       -0.0005406090
   29       -0.0086055420
   30       -0.0144123570
   31       -0.0217798600
   32       -0.0438618360
   33       -0.0010711240
   34       -0.0004899800
   35        0.0097275180
   36       -0.0217910450
   37       -0.0438669770
   38       -0.0008265120
   39       -0.0008381530
   40       -0.0097271640
 Sym= A
 Ene=          8.00000000
 Spin= Alpha
 Occup=        2.00000200
    1       -0.0577761160
    2        0.2235936090
    3        0.1480618510
    4        0.4436366110
    5       -0.0001974010
    6       -0.0947324200
    7        0.2583583020
    8        0.0012946220
    9       -0.0296909020
   10        0.0270346700
   11       -0.0110873400
   12       -0.0159473260
   13        0.0014560390
   14       -0.0016299900
   15        0.0000848760
   16        0.0065388420
   17       -0.0150646800
   18       -0.0272169930
   19       -0.0201067490
   20       -0.0011363530
   21        0.0428966910
   22       -0.0332410220
   23        0.0019873560
   24        0.0446254760
   25        0.0005646870
   26       -0.0010657730
   27        0.0005010890
   28       -0.0005803510
   29       -0.0083895220
   30        0.0008163420
   31        0.3123692850
   32        0.1163380610
   33       -0.0330977420
   34        0.0006734180
   35        0.0084866930
   36       -0.0028557410
   37       -0.0063893150
   38       -0.0008861130
   39        0.0003331630
   40        0.0018874990
 Sym= A
 Ene=          9.00000000
 Spin= Alpha
 Occup=        2.00000100
    1        0.0065371670
    2       -0.0150596200
    3       -0.0272074600
    4       -0.0079707860
    5       -0.0185050920
    6       -0.0428826900
    7       -0.0095184130
    8       -0.0319152390
    9       -0.0446179200
   10       -0.0012005810
   11        0.0006976450
   12        0.0005029380
   13        0.0001609010
   14        0.0021039320
   15        0.0081633700
   16       -0.0577748680
   17        0.2235906860
   18        0.1480567490
   19        0.1516033400
   20        0.4169358070
   21        0.0947170530
   22        0.0896226130
   23        0.2423239370
   24        0.0296804630
   25       -0.0058168460
   26        0.0217629900
   27       -0.0159461390
   28        0.0152649730
   29        0.0004774300
   30        0.0015601990
   31       -0.0028727080
   32       -0.0063991940
   33        0.0000108200
   34       -0.0009465200
   35       -0.0018875210
   36        0.3123695410
   37        0.1163389510
   38       -0.0106853220
   39       -0.0313330500
   40       -0.0084870940
 Sym= A
 Ene=         10.00000000
 Spin= Alpha
 Occup=       -0.00000000
    1       -0.0610656600
    2        0.2744411840
    3        0.1097272750
    4       -0.0136137560
    5        0.0036780360
    6        0.6068233330
    7        0.0194906820
    8        0.0117957770
    9        0.3648750110
   10       -0.0080025530
   11       -0.0005027560
   12        0.0545512030
   13        0.0006355930
   14        0.0214142000
   15        0.0054049230
   16        0.0610779190
   17       -0.2745514190
   18       -0.1097505050
   19        0.0009897110
   20        0.0138439040
   21        0.6068079920
   22       -0.0175691030
   23       -0.0142345870
   24        0.3649202550
   25        0.0009589840
   26        0.0073484280
   27       -0.0543688100
   28        0.0022856650
   29        0.0123104160
   30        0.0182671460
   31        0.0187960490
   32       -0.0101775070
   33       -0.0072430230
   34       -0.0001151440
   35        0.0042771770
   36       -0.0187535980
   37        0.0102173220
   38        0.0024126040
   39        0.0065819130
   40        0.0041289570
 Sym= A
 Ene=         11.00000000
 Spin= Alpha
 Occup=       -0.00000000
    1        0.0810159850
    2       -0.3766050590
    3       -0.3088149840
    4       -0.5722482750
    5        0.0002795820
    6        0.1798842620
    7       -0.4451512870
    8       -0.0012180420
    9        0.1203969920
   10       -0.0717999560
   11        0.0140724880
   12        0.0195280600
   13       -0.0014783700
   14        0.0194470570
   15        0.0005235370
   16        0.0043731540
   17       -0.0187557110
   18       -0.0368801770
   19        0.0462639670
   20        0.0061795420
   21        0.0009152230
   22        0.0414768290
   23       -0.0025050810
   24       -0.0012225120
   25        0.0066412290
   26        0.0024296570
   27       -0.0068749400
   28        0.0008303880
   29        0.0001568700
   30       -0.0003687520
   31        1.0256141300
   32        0.3935492850
   33       -0.0663060640
   34        0.0017194950
   35        0.0193444260
   36       -0.0151773630
   37        0.0068533600
   38       -0.0000235690
   39        0.0005742440
   40       -0.0010878610
 Sym= A
 Ene=         12.00000000
 Spin= Alpha
 Occup=       -0.00000000
    1        0.0043826520
    2       -0.0187199330
    3       -0.0370851110
    4        0.0217676230
    5        0.0414437500
    6       -0.0009428490
    7        0.0116523330
    8        0.0397637410
    9        0.0012316130
   10        0.0033942400
   11        0.0058197800
   12       -0.0069562000
   13        0.0021953920
   14        0.0002461940
   15       -0.0003067460
   16        0.0809630420
   17       -0.3764089360
   18       -0.3083202910
   19       -0.1951833880
   20       -0.5376444170
   21       -0.1798245940
   22       -0.1537019540
   23       -0.4178375540
   24       -0.1204115560
   25        0.0030331220
   26       -0.0611213860
   27        0.0196180720
   28       -0.0328308320
   29       -0.0071526400
   30       -0.0182483420
   31       -0.0150705780
   32        0.0069584590
   33        0.0005323090
   34       -0.0002269240
   35        0.0011200120
   36        1.0260440300
   37        0.3927555070
   38       -0.0205727250
   39       -0.0626012470
   40       -0.0193085570
 Sym= A
 Ene=         13.00000000
 Spin= Alpha
 Occup=        0.00000000
    1       -0.0438837520
    2       -0.7046325280
    3        1.8774308700
    4        0.1271301740
    5       -0.7344590610
    6       -0.2304398910
    7       -0.1310723630
    8        0.8569295320
    9        1.0495953400
   10       -0.3509577730
   11       -0.3782751500
   12        0.1666105330
   13        0.0229273540
   14        0.2849236330
   15       -0.2831538190
   16        0.0657319330
   17        0.0526243290
   18       -1.1230725100
   19        0.0055970110
   20       -0.0099064400
   21        0.0665606300
   22       -0.0109888550
   23       -0.0834926040
   24        0.8258051850
   25        0.1905865950
   26        0.1825850570
   27       -0.0613932920
   28       -0.0049461960
   29        0.0395055020
   30       -0.0157872210
   31        0.0758387100
   32       -0.1085555110
   33       -0.0348513680
   34       -0.0210617020
   35       -0.0396217590
   36        0.0560251390
   37       -0.1463716440
   38        0.0085675660
   39        0.0181541760
   40       -0.0112325110
 Sym= A
 Ene=         14.00000000
 Spin= Alpha
 Occup=        0.00000000
    1        0.0632532760
    2       -0.1854106800
    3       -0.4310112660
    4        0.5310775710
    5        0.2830927060
    6        0.1621935620
    7       -1.0223443100
    8       -0.3312326010
    9       -0.1014712030
   10       -0.0033024230
   11        0.3146776490
   12       -0.0857259320
   13        0.0608857740
   14        0.7349664790
   15        0.0711527980
   16       -0.0065658820
   17        0.0327409870
   18        0.0718586180
   19        0.0241438380
   20        0.0079076030
   21       -0.0364860520
   22        0.0274658730
   23        0.0493789720
   24       -0.0483225270
   25       -0.0113249050
   26       -0.0219374290
   27        0.0233065730
   28       -0.0063253780
   29        0.0670521800
   30        0.0033455310
   31        0.5285268260
   32        0.2839581510
   33       -0.0849957070
   34       -0.0019358050
   35       -0.0616967410
   36       -0.0063489880
   37        0.0072892700
   38        0.0027287490
   39       -0.0021945400
   40       -0.0095841810
 Sym= A
 Ene=         15.00000000
 Spin= Alpha
 Occup=       -0.00000000
    1       -0.0770095120
    2       -1.0243469100
    3        2.9852261100
    4       -0.3135394440
    5        0.1228335210
    6       -0.4267096210
    7        0.9109549440
    8       -0.0921532700
    9        1.3059658300
   10       -0.2030355200
   11       -0.3723810060
   12       -0.1667852660
   13       -0.0405226790
   14        0.1748274660
   15        0.6139526370
   16        0.0824964240
   17        0.0914470600
   18       -1.5223562300
   19       -0.0074969040
   20        0.0263154160
   21        0.0576903810
   22       -0.1816440190
   23       -0.1574686640
   24        0.9894984010
   25        0.2386923350
   26        0.1896625330
   27        0.0025322630
   28       -0.0215227210
   29        0.0578217360
   30        0.0792523450
   31       -0.4270698320
   32       -0.5774305090
   33        0.0381487200
   34        0.0224040940
   35       -0.0693984400
   36        0.1288783940
   37       -0.0758787690
   38        0.0088048480
   39        0.0175389220
   40       -0.0376671980
 Sym= A
 Ene=         16.00000000
 Spin= Alpha
 Occup=       -0.00000000
    1       -0.0523952130
    2       -0.1047769980
    3        0.6787744020
    4       -0.3158834710
    5       -0.1135755300
    6        0.5343197630
    7        0.4920026720
    8        0.1644752750
    9       -0.6723411000
   10       -0.5265745690
   11       -0.4822826710
   12        0.4225618740
   13       -0.0062955000
   14        0.4013089550
   15        0.2782175490
   16        0.0142430350
   17        0.1238929650
   18       -0.2005374580
   19       -0.0131996990
   20        0.0009957780
   21       -0.0078433420
   22       -0.1743972660
   23       -0.1848259200
   24        0.0010088000
   25        0.0975281170
   26        0.0788919070
   27       -0.0734536180
   28       -0.0080488420
   29        0.0516547330
   30        0.0390612480
   31        0.0420563640
   32       -0.3082573310
   33       -0.1305854350
   34        0.0061667790
   35        0.0131088860
   36        0.1071453370
   37        0.1069126810
   38        0.0050268700
   39        0.0073523160
   40       -0.0092992870
 Sym= A
 Ene=         17.00000000
 Spin= Alpha
 Occup=       -0.00000000
    1        0.0251216240
    2       -0.2318353700
    3        0.0406457530
    4       -0.0409213140
    5       -0.2634731870
    6        0.3685137220
    7        0.0962452090
    8        0.3257170540
    9       -0.8492449330
   10       -0.3870457410
   11        0.8582888050
   12       -0.5897910000
   13       -0.1242825000
   14       -0.1822666040
   15        0.1564501750
   16       -0.0417447070
   17        0.0385648950
   18        0.5861065390
   19       -0.0170803770
   20       -0.0104752260
   21       -0.1142709830
   22        0.0451038640
   23       -0.1324191610
   24       -0.4169970270
   25       -0.0931199580
   26       -0.1380130210
   27        0.0945629110
   28       -0.0011802660
   29       -0.0334251170
   30        0.0212036390
   31        0.1252558620
   32       -0.3072813650
   33       -0.0416973520
   34        0.0161259000
   35        0.0475836190
   36        0.0500888770
   37        0.0222856140
   38       -0.0101161150
   39       -0.0113816870
   40        0.0018954080
 Sym= A
 Ene=         18.00000000
 Spin= Alpha
 Occup=        0.00000000
    1       -0.4071706070
    2        0.1167508460
    3        3.1777639700
    4       -0.2274979970
    5        0.0044955770
    6       -0.0213857860
    7        0.2942774090
    8       -0.0088614730
    9       -0.0643019610
   10       -1.2383217600
   11       -1.4344892300
   12       -1.7414368400
   13       -0.2232401030
   14        0.1668271200
   15       -0.0767473180
   16       -0.0117026300
   17       -0.0622984470
   18       -0.0413944770
   19       -0.0093964780
   20       -0.0115049810
   21       -0.0379539660
   22       -0.0301929190
   23        0.0325841230
   24       -0.1244670780
   25       -0.1025419850
   26       -0.1205528310
   27        0.3049672990
   28        0.0008028890
   29        0.0216993400
   30       -0.0313517810
   31        0.0953740930
   32       -0.5312025210
   33       -0.3174090490
   34        0.0260182140
   35        0.0411180620
   36        0.0448008260
   37       -0.0731121600
   38       -0.0068271600
   39       -0.0172077560
   40        0.0411512600
 Sym= A
 Ene=         19.00000000
 Spin= Alpha
 Occup=       -0.00000000
    1        0.0189206040
    2       -0.5426989060
    3        1.0086494800
    4       -0.0129269970
    5        0.3039866340
    6       -0.0099744100
    7        0.0982201340
    8       -0.3992195390
    9        0.4965611230
   10       -0.2731251430
   11       -0.0085006460
   12        0.4342555900
   13       -0.8043716590
   14       -0.0127826330
   15       -0.3952589940
   16        0.0416788350
   17        0.0627240240
   18       -0.6793882290
   19       -0.0028406390
   20       -0.0014942670
   21        0.0444941930
   22        0.0224221170
   23        0.2322755950
   24        0.5612744650
   25        0.1452814510
   26        0.1599496070
   27       -0.1182985840
   28        0.0304174930
   29        0.0040418620
   30       -0.0522684740
   31       -0.0019100310
   32       -0.1448822070
   33        0.0120268070
   34        0.0966512300
   35        0.0014815760
   36       -0.0793598710
   37       -0.0526584230
   38        0.0060796190
   39        0.0204963500
   40       -0.0084669590
 Sym= A
 Ene=         20.00000000
 Spin= Alpha
 Occup=        0.00000000
    1       -0.0837374880
    2       -0.3250860070
    3        1.3725559500
    4        0.5103393940
    5       -0.0606068670
    6        0.0401812950
    7       -0.8222046670
    8        0.1092960600
    9        0.4626270820
   10       -0.5547867180
   11       -0.6257400080
   12        0.1462537950
   13       -0.1292185000
   14       -0.5585302220
   15        0.4672507970
   16        0.0468507620
   17        0.0493888790
   18       -0.7606505830
   19        0.0126013020
   20        0.0131685910
   21        0.0514034410
   22        0.2634500880
   23       -0.1267132400
   24        0.4867586890
   25        0.1368316060
   26        0.1221956290
   27       -0.0264686760
   28       -0.0005032210
   29       -0.0872237310
   30        0.0636174470
   31        0.1855017190
   32        0.1027996960
   33       -0.0106435830
   34        0.0277273610
   35        0.0738240090
   36        0.0440913180
   37       -0.0449560670
   38       -0.0045355930
   39        0.0156702050
   40       -0.0087310340
 Sym= A
 Ene=         21.00000000
 Spin= Alpha
 Occup=        0.00000000
    1       -0.1565391760
    2       -0.7612667360
    3        2.9312256700
    4       -0.0982796620
    5        0.3070635660
    6        0.0000283000
    7        0.1753760000
    8       -0.3971784440
    9        0.6895705620
   10       -1.1558130600
   11       -0.5238181960
   12       -0.1386376950
   13        0.5941167230
   14       -0.1533738720
   15       -0.4023325550
   16        0.0565612560
   17        0.0630134400
   18       -1.0120139300
   19       -0.0144232240
   20       -0.0035225960
   21        0.0449475230
   22        0.0779582750
   23        0.2556259260
   24        0.7756379930
   25        0.1755303850
   26        0.1675273430
   27       -0.0330030800
   28       -0.0082362490
   29       -0.0196597390
   30       -0.0548446620
   31        0.1192509510
   32       -0.4386673690
   33       -0.1357541320
   34       -0.0818874880
   35        0.0562267330
   36       -0.0426249200
   37       -0.1567637820
   38        0.0065140770
   39        0.0179419720
   40        0.0043006820
 Sym= A
 Ene=         22.00000000
 Spin= Alpha
 Occup=       -0.00000000
    1        0.0493644590
    2       -0.8947194150
    3        1.5732915800
    4        0.1209228390
    5        0.0230156770
    6        0.3503974310
    7        0.9654844140
    8       -0.0352105760
    9       -0.6517305760
   10        1.2254694700
   11       -0.4114516540
   12       -0.3217316050
   13        0.0520710070
   14       -0.3483747310
   15       -0.1443360420
   16       -0.0029482430
   17        0.1467548000
   18       -0.0991151440
   19       -0.0002605470
   20       -0.0020136450
   21       -0.0992087660
   22       -0.0837446450
   23        0.0199638070
   24        0.0895696220
   25        0.0191435530
   26        0.0475811790
   27       -0.0113810500
   28       -0.0039726400
   29        0.0228622870
   30       -0.0150509750
   31       -1.2016131400
   32       -0.7053102460
   33        0.3622593160
   34       -0.0101701460
   35       -0.1064156770
   36        0.0037272530
   37        0.0374868190
   38        0.0078586850
   39        0.0031090080
   40       -0.0127536570
 Sym= A
 Ene=         23.00000000
 Spin= Alpha
 Occup=        0.00000000
    1        0.0647830140
    2        0.0528427160
    3       -1.1082244000
    4       -0.0072028380
    5        0.0115970590
    6       -0.0651335530
    7       -0.0775932190
    8        0.0199352170
    9       -0.8174335430
   10        0.1794114870
   11        0.1903672610
   12       -0.0618964480
   13       -0.0009909610
   14        0.0011264590
   15       -0.0437396150
   16       -0.0418279310
   17       -0.7014317970
   18        1.8464001100
   19       -0.6348712740
   20        0.3906790390
   21        0.2242224100
   22        0.7410727860
   23       -0.4511979060
   24       -1.0379606000
   25       -0.3506905130
   26       -0.3634021050
   27        0.1619542510
   28        0.0255160470
   29        0.1642991740
   30       -0.3717772070
   31        0.0529734460
   32       -0.1458024880
   33        0.0210587060
   34        0.0023549490
   35        0.0113783060
   36        0.0919399620
   37       -0.0976863240
   38       -0.0294666070
   39       -0.0241093440
   40        0.0392122950
 Sym= A
 Ene=         24.00000000
 Spin= Alpha
 Occup=        0.00000000
    1       -0.0089239410
    2        0.0322030050
    3        0.1111699140
    4        0.0139471560
    5        0.0183813560
    6        0.0395187930
    7        0.0531736730
    8        0.0065058360
    9        0.0787029280
   10       -0.0313771940
   11       -0.0154738640
   12        0.0263773810
   13       -0.0008687770
   14       -0.0281632020
   15       -0.0623407110
   16        0.0648335470
   17       -0.1610719880
   18       -0.4940289390
   19        0.4554730380
   20        0.3878062310
   21       -0.1723933150
   22       -0.6682356240
   23       -0.8248686800
   24        0.1450264980
   25        0.3243165190
   26        0.0140287620
   27       -0.0905847430
   28       -0.0717792340
   29       -0.3346957720
   30       -0.6631868010
   31       -0.0060246390
   32        0.0132879790
   33       -0.0019372300
   34        0.0033117330
   35        0.0099703210
   36        0.5221766950
   37        0.2825955390
   38       -0.0264680800
   39       -0.0766578600
   40        0.0603683830
 Sym= A
 Ene=         25.00000000
 Spin= Alpha
 Occup=       -0.00000000
    1        0.0831785250
    2        0.0924729330
    3       -1.5349812400
    4        0.0237168690
    5       -0.0163243470
    6       -0.0581036930
    7       -0.2116673600
    8       -0.1181346040
    9       -0.9991874110
   10        0.1850188840
   11        0.2478213250
   12        0.0017615020
   13        0.0014935330
   14       -0.0959565940
   15       -0.0283108400
   16       -0.0780087960
   17       -1.0326274800
   18        3.0130292600
   19        0.0022900100
   20       -0.3388168640
   21        0.4297280820
   22        0.2337926380
   23        0.8941820470
   24       -1.3168595700
   25       -0.3799937670
   26       -0.2035698680
   27       -0.1678117220
   28        0.0323741090
   29       -0.6295328210
   30        0.0433989810
   31        0.1295059250
   32       -0.0776369080
   33        0.0207749530