[Molden Format]
 Molden2AIM, Version 5.0.2 (10/09/2020)           Time: Tue Apr  6 00:21:31 2021

[Atoms] AU
  O      1    8        0.0000000000        0.0000000000        0.0000000000
  O      2    8        0.0000000000        0.0000000000        2.7620617201
  H      3    1        1.7632934844        0.0000000000       -0.4771921162
  H      4    1       -1.3507611636        1.1334231960        3.2392538382
[GTO]
    1    0
 S    6  1.0
    0.5484672000D+04    0.1831100116D-02
    0.8252350000D+03    0.1395010088D-01
    0.1880470000D+03    0.6844510432D-01
    0.5296450000D+02    0.2327140147D+00
    0.1689757000D+02    0.4701930297D+00
    0.5799635000D+01    0.3585210226D+00
 S    3  1.0
    0.1553962000D+02   -0.1107766479D+00
    0.3599934000D+01   -0.1480255295D+00
    0.1013762000D+01    0.1130766406D+01
 S    1  1.0
    0.2700058000D+00    0.1000000000D+01
 P    3  1.0
    0.1553962000D+02    0.7087426029D-01
    0.3599934000D+01    0.3397528096D+00
    0.1013762000D+01    0.7271585926D+00
 P    1  1.0
    0.2700058000D+00    0.1000000000D+01
 D    1  1.0
    0.8000000000D+00    0.1000000000D+01

    2    0
 S    6  1.0
    0.5484672000D+04    0.1831100116D-02
    0.8252350000D+03    0.1395010088D-01
    0.1880470000D+03    0.6844510432D-01
    0.5296450000D+02    0.2327140147D+00
    0.1689757000D+02    0.4701930297D+00
    0.5799635000D+01    0.3585210226D+00
 S    3  1.0
    0.1553962000D+02   -0.1107766479D+00
    0.3599934000D+01   -0.1480255295D+00
    0.1013762000D+01    0.1130766406D+01
 S    1  1.0
    0.2700058000D+00    0.1000000000D+01
 P    3  1.0
    0.1553962000D+02    0.7087426029D-01
    0.3599934000D+01    0.3397528096D+00
    0.1013762000D+01    0.7271585926D+00
 P    1  1.0
    0.2700058000D+00    0.1000000000D+01
 D    1  1.0
    0.8000000000D+00    0.1000000000D+01

    3    0
 S    3  1.0
    0.1873114000D+02    0.3349460926D-01
    0.2825394000D+01    0.2347270649D+00
    0.6401217000D+00    0.8137572250D+00
 S    1  1.0
    0.1612778000D+00    0.1000000000D+01
 P    1  1.0
    0.1100000000D+01    0.1000000000D+01

    4    0
 S    3  1.0
    0.1873114000D+02    0.3349460926D-01
    0.2825394000D+01    0.2347270649D+00
    0.6401217000D+00    0.8137572250D+00
 S    1  1.0
    0.1612778000D+00    0.1000000000D+01
 P    1  1.0
    0.1100000000D+01    0.1000000000D+01

[MO]
 Sym= A
 Ene=          1.00000000
 Spin= Alpha
 Occup=        1.99999800
    1        1.0107534100
    2       -0.0196600730
    3       -0.0489718260
    4        0.0028791750
    5        0.0001947400
    6        0.0023989870
    7        0.0012181160
    8       -0.0001321610
    9       -0.0016010520
   10        0.0009487540
   11        0.0005907940
   12       -0.0015395480
   13        0.0000806970
   14       -0.0000324880
   15       -0.0000816080
   16        0.0007215730
   17       -0.0028309790
   18        0.0036689940
   19        0.0001331260
   20       -0.0001633940
   21        0.0074114090
   22        0.0001203700
   23       -0.0002659620
   24        0.0008446730
   25        0.0007090500
   26        0.0007359940
   27       -0.0014450450
   28       -0.0001938000
   29       -0.0003550920
   30        0.0002324280
   31       -0.0099972230
   32        0.0025159950
   33        0.0031173580
   34        0.0000111130
   35       -0.0005177340
   36       -0.0000586790
   37        0.0009168280
   38       -0.0000922200
   39        0.0000653420
   40        0.0002030610
 Sym= A
 Ene=          2.00000000
 Spin= Alpha
 Occup=        2.00000100
    1        0.0007219300
    2       -0.0028315240
    3        0.0036682840
    4       -0.0002072280
    5       -0.0000395530
    6       -0.0074110090
    7       -0.0002633150
    8       -0.0001265430
    9       -0.0008445640
   10        0.0008854520
   11        0.0005595180
   12       -0.0014449700
   13        0.0000496650
   14       -0.0004220380
   15        0.0000507100
   16        1.0107528100
   17       -0.0196579750
   18       -0.0489696940
   19       -0.0020813220
   20        0.0019989240
   21       -0.0023987680
   22       -0.0010183400
   23        0.0006815650
   24        0.0016011290
   25        0.0007325030
   26        0.0008070450
   27       -0.0015395480
   28       -0.0002181260
   29        0.0000277950
   30        0.0000837240
   31       -0.0000590200
   32        0.0009167630
   33        0.0001126460
   34       -0.0000095060
   35       -0.0002030650
   36       -0.0099965850
   37        0.0025160090
   38       -0.0023807620
   39        0.0020117700
   40        0.0005177130
 Sym= A
 Ene=          3.00000000
 Spin= Alpha
 Occup=        2.00000200
    1       -0.1263751250
    2        0.4344783490
    3        0.5098409990
    4       -0.3411513520
    5        0.0910097390
    6       -0.1700725210
    7       -0.2328295020
    8        0.0677882500
    9       -0.1228162510
   10       -0.0116660250
   11        0.0113289760
   12        0.0003370500
   13        0.0015617910
   14       -0.0097883110
   15        0.0014310230
   16        0.0098756490
   17       -0.0263744020
   18       -0.0320858530
   19        0.0189624750
   20       -0.0036143910
   21        0.0573205120
   22        0.0281064480
   23       -0.0059445460
   24        0.0585114510
   25       -0.0032224600
   26       -0.0010054530
   27        0.0042279130
   28        0.0014586250
   29        0.0071049120
   30       -0.0014304200
   31       -0.0546786460
   32       -0.0703339460
   33       -0.0071174950
   34        0.0028605140
   35       -0.0047336800
   36       -0.0134259330
   37        0.0020468320
   38        0.0003556840
   39        0.0002306510
   40        0.0018104010
 Sym= A
 Ene=          4.00000000
 Spin= Alpha
 Occup=        2.00000300
    1       -0.0188112680
    2        0.0669416710
    3        0.0736517390
    4       -0.0465814460
    5       -0.6609537430
    6       -0.0162611920
    7       -0.0283047600
    8       -0.4812362470
    9       -0.0147267880
   10       -0.0003746730
   11       -0.0002901180
   12        0.0006647910
   13       -0.0212794530
   14       -0.0001881880
   15       -0.0074445930
   16        0.0033232920
   17       -0.0063061690
   18       -0.0228046250
   19        0.0095273960
   20        0.0283733840
   21        0.0049882210
   22        0.0154488380
   23        0.0450089380
   24        0.0060912080
   25       -0.0008830390
   26        0.0003351780
   27        0.0005478610
   28       -0.0016452620
   29       -0.0003128550
   30        0.0150290880
   31       -0.0084147330
   32       -0.0155585490
   33       -0.0007669520
   34       -0.0209990470
   35       -0.0001692830
   36        0.0180670350
   37        0.0198470350
   38        0.0010833930
   39        0.0008421850
   40        0.0004311630
 Sym= A
 Ene=          5.00000000
 Spin= Alpha
 Occup=        1.99999900
    1        0.0098869610
    2       -0.0263973830
    3       -0.0321671610
    4       -0.0168228390
    5        0.0095240970
    6       -0.0573373500
    7       -0.0252981260
    8        0.0136754120
    9       -0.0585339770
   10       -0.0035463560
   11       -0.0006840800
   12        0.0042304370
   13        0.0010102440
   14        0.0063253420
   15       -0.0035117590
   16       -0.1264475290
   17        0.4347269280
   18        0.5101106740
   19        0.3184207750
   20       -0.1514875210
   21        0.1701312320
   22        0.2208865270
   23       -0.0991166590
   24        0.1228680630
   25       -0.0034323950
   26        0.0030933290
   27        0.0003390670
   28        0.0128161170
   29       -0.0084002100
   30        0.0052168070
   31       -0.0133676890
   32        0.0021154830
   33       -0.0001249250
   34        0.0004110480
   35       -0.0018121630
   36       -0.0546968760
   37       -0.0703858940
   38        0.0072459850
   39       -0.0024444920
   40        0.0047338700
 Sym= A
 Ene=          6.00000000
 Spin= Alpha
 Occup=        2.00000100
    1        0.0032884090
    2       -0.0062140510
    3       -0.0226895970
    4        0.0109966780
    5        0.0278060990
    6       -0.0047828700
    7        0.0171861570
    8        0.0443470200
    9       -0.0058806110
   10        0.0010362630
   11       -0.0015686180
   12        0.0005323540
   13        0.0009739310
   14       -0.0099224170
   15       -0.0112996270
   16       -0.0183550500
   17        0.0653649010
   18        0.0718076250
   19       -0.3903022510
   20       -0.5357328950
   21        0.0156481640
   22       -0.2884365560
   23       -0.3864948870
   24        0.0142852450
   25        0.0178207940
   26       -0.0184847080
   27        0.0006639120
   28        0.0036982810
   29        0.0046713300
   30        0.0058056570
   31        0.0181124840
   32        0.0198385280
   33       -0.0002882240
   34        0.0013398790
   35       -0.0004247370
   36       -0.0082318980
   37       -0.0153094570
   38       -0.0129382770
   39       -0.0165692870
   40        0.0001527330
 Sym= A
 Ene=          7.00000000
 Spin= Alpha
 Occup=        2.00000000
    1       -0.0321024940
    2        0.1369261290
    3        0.0804242750
    4        0.0222130130
    5        0.0009475160
    6        0.3951657780
    7        0.0280225400
    8        0.0037120090
    9        0.2482119830
   10       -0.0198964560
   11       -0.0173621400
   12        0.0372585940
   13       -0.0005855940
   14        0.0130095130
   15        0.0023525530
   16       -0.0321012520
   17        0.1369177410
   18        0.0804169780
   19       -0.0164041370
   20        0.0149916190
   21       -0.3951676320
   22       -0.0190802790
   23        0.0208469710
   24       -0.2482119350
   25       -0.0183492200
   26       -0.0189098270
   27        0.0372590460
   28        0.0015434820
   29        0.0084530140
   30       -0.0101646780
   31       -0.0177344750
   32       -0.0427543100
   33       -0.0009921800
   34       -0.0001792770
   35        0.0093316410
   36       -0.0177423700
   37       -0.0427567880
   38        0.0006439970
   39       -0.0007742400
   40       -0.0093314130
 Sym= A
 Ene=          8.00000000
 Spin= Alpha
 Occup=        2.00000400
    1       -0.0600264580
    2        0.2316360740
    3        0.1561056180
    4        0.4418221360
    5        0.0030778720
    6       -0.0902924390
    7        0.2606177400
    8        0.0017067930
    9       -0.0300326310
   10        0.0256750020
   11       -0.0103066550
   12       -0.0153683490
   13        0.0008949510
   14       -0.0007451380
   15       -0.0006832930
   16        0.0082319680
   17       -0.0163633450
   18       -0.0451168970
   19       -0.0124656510
   20       -0.0059383420
   21        0.0394541710
   22       -0.0239064090
   23       -0.0087312370
   24        0.0417779710
   25        0.0009855290
   26       -0.0016326150
   27        0.0006470870
   28       -0.0003732980
   29       -0.0104534300
   30        0.0015125120
   31        0.3095280180
   32        0.1068190430
   33       -0.0334901620
   34        0.0001996760
   35        0.0084015950
   36        0.0160593530
   37        0.0134208320
   38       -0.0001447010
   39       -0.0005632700
   40        0.0008646830
 Sym= A
 Ene=          9.00000000
 Spin= Alpha
 Occup=        2.00000200
    1        0.0082293220
    2       -0.0163561230
    3       -0.0451175980
    4        0.0057657000
    5       -0.0125581480
    6       -0.0394425500
    7        0.0127240060
    8       -0.0220514940
    9       -0.0417680370
   10        0.0002231620
   11       -0.0008702450
   12        0.0006470830
   13       -0.0014234370
   14       -0.0089806520
   15        0.0055602420
   16       -0.0600257250
   17        0.2316247030
   18        0.1560886500
   19       -0.3365104260
   20        0.2863357870
   21        0.0902764550
   22       -0.1985727020
   23        0.1688150410
   24        0.0300225470
   25        0.0100458800
   26        0.0053215110
   27       -0.0153673940
   28       -0.0206143450
   29       -0.0001314760
   30        0.0010027000
   31        0.0160786330
   32        0.0134280920
   33       -0.0002529340
   34       -0.0005240120
   35       -0.0008638090
   36        0.3095305980
   37        0.1068206820
   38        0.0257825480
   39       -0.0213753560
   40       -0.0084020340
 Sym= A
 Ene=         10.00000000
 Spin= Alpha
 Occup=        0.00000000
    1       -0.0605806080
    2        0.2786755090
    3        0.0933596790
    4       -0.0159944790
    5        0.0030916120
    6        0.6072665500
    7       -0.0009705100
    8        0.0084838070
    9        0.3639287090
   10       -0.0076971380
   11        0.0010525770
   12        0.0570051550
   13       -0.0007749240
   14        0.0152686770
   15        0.0039612100
   16        0.0606245970
   17       -0.2785943620
   18       -0.0941434740
   19       -0.0140081020
   20        0.0076810730
   21        0.6070630120
   22       -0.0059409870
   23       -0.0060182570
   24        0.3640485790
   25        0.0034121750
   26        0.0032904520
   27       -0.0568067440
   28       -0.0049202400
   29       -0.0092912690
   30        0.0129078940
   31        0.0283009350
   32       -0.0030313790
   33       -0.0071110720
   34        0.0000463220
   35        0.0054482980
   36       -0.0280227360
   37        0.0034388830
   38       -0.0050370230
   39        0.0041197670
   40        0.0049886430
 Sym= A
 Ene=         11.00000000
 Spin= Alpha
 Occup=        0.00000000
    1        0.0816724590
    2       -0.3797661160
    3       -0.3062144460
    4       -0.5683376200
    5       -0.0026303760
    6        0.1732770640
    7       -0.4433299450
    8       -0.0017355570
    9        0.1181389640
   10       -0.0725734050
   11        0.0126695090
   12        0.0181046170
   13       -0.0007650930
   14        0.0187518360
   15        0.0006615500
   16        0.0021286960
   17       -0.0153007590
   18       -0.0207894840
   19        0.0344427780
   20        0.0098479720
   21        0.0011182500
   22        0.0381274010
   23        0.0059437910
   24        0.0005754210
   25        0.0042465450
   26        0.0027112780
   27       -0.0074954150
   28        0.0002405600
   29        0.0003374970
   30       -0.0001841270
   31        1.0368332400
   32        0.3819192540
   33       -0.0679940120
   34        0.0006986620
   35        0.0198340950
   36       -0.0229079620
   37       -0.0020141080
   38       -0.0013161600
   39        0.0013068600
   40        0.0001080670
 Sym= A
 Ene=         12.00000000
 Spin= Alpha
 Occup=       -0.00000000
    1        0.0021318810
    2       -0.0153524380
    3       -0.0208061770
    4       -0.0199796460
    5        0.0298155020
    6       -0.0012802290
    7       -0.0254691880
    8        0.0289890330
    9       -0.0005924890
   10        0.0036076550
   11        0.0035587350
   12       -0.0077185770
   13       -0.0009656640
   14        0.0004121180
   15       -0.0001475910
   16        0.0815165990
   17       -0.3789659830
   18       -0.3051822510
   19        0.4328441660
   20       -0.3666008470
   21       -0.1730220510
   22        0.3388543880
   23       -0.2866197890
   24       -0.1182922250
   25       -0.0373208620
   26       -0.0236718890
   27        0.0183916780
   28        0.0494069680
   29        0.0143584950
   30       -0.0129038170
   31       -0.0230831860
   32       -0.0018922500
   33        0.0019726810
   34        0.0001855880
   35       -0.0001588160
   36        1.0380117300
   37        0.3804217090
   38        0.0510211360
   39       -0.0418427890
   40       -0.0192883090
 Sym= A
 Ene=         13.00000000
 Spin= Alpha
 Occup=       -0.00000000
    1       -0.0235010380
    2       -0.9099597470
    3        2.0291356000
    4        0.4583961260
    5       -0.5098213570
    6       -0.1993101930
    7       -0.7117571110
    8        0.5967829050
    9        1.2087611700
   10       -0.4617590370
   11       -0.3077186960
   12        0.2276535640
   13        0.1070812120
   14        0.2888615940
   15       -0.1625894940
   16        0.0750697170
   17        0.0745717960
   18       -1.2945816900
   19        0.0112305200
   20       -0.0078394290
   21        0.0738645600
   22        0.0411165370
   23       -0.0531406140
   24        0.9747871730
   25        0.2160297980
   26        0.2123206380
   27       -0.0784740700
   28        0.0016072370
   29        0.0211518770
   30       -0.0060081310
   31        0.2885912400
   32        0.0228186440
   33       -0.0449891180
   34       -0.0258039980
   35       -0.0341250090
   36        0.0596899540
   37       -0.1934596350
   38       -0.0150825220
   39        0.0136740560
   40       -0.0104805720
 Sym= A
 Ene=         14.00000000
 Spin= Alpha
 Occup=       -0.00000000
    1        0.0149704100
    2       -0.4436128720
    3        0.6616932920
    4        0.3020849240
    5        0.6182896950
    6       -0.0041998080
    7       -0.5326384740
    8       -0.7038551730
    9        0.3884605040
   10       -0.1967670850
   11        0.0482122850
   12        0.0235638130
   13       -0.0683228420
   14        0.4628702990
   15        0.4423109560
   16        0.0239085630
   17        0.0405180030
   18       -0.4361326420
   19        0.0091613640
   20        0.0168349430
   21        0.0099635320
   22       -0.0128942220
   23        0.0654909450
   24        0.3406536610
   25        0.0752708450
   26        0.0666994530
   27       -0.0196620950
   28        0.0035952220
   29        0.0445525910
   30        0.0450317490
   31        0.2967034130
   32        0.0604729270
   33       -0.0607242150
   34        0.0294395360
   35       -0.0425195540
   36       -0.0006277970
   37       -0.0656091320
   38       -0.0026669290
   39        0.0078130040
   40       -0.0058733570
 Sym= A
 Ene=         15.00000000
 Spin= Alpha
 Occup=       -0.00000000
    1       -0.0724725150
    2       -0.6401217190
    3        2.1989604500
    4       -0.0794633430
    5       -0.0145540020
    6       -0.6034901350
    7        0.5372171050
    8        0.0507748950
    9        1.3360018600
   10        0.1140084950
   11       -0.3847250660
   12       -0.2762745340
   13       -0.1310010110
   14       -0.5982248070
   15        0.4004781600
   16        0.0646643620
   17        0.0195990570
   18       -1.2029488100
   19       -0.0180389690
   20        0.0146243410
   21        0.0689027130
   22        0.0600886040
   23       -0.1158605420
   24        0.7808474120
   25        0.1280636630
   26        0.1437227540
   27        0.0450232130
   28        0.0347273100
   29       -0.0425343350
   30        0.0523844910
   31       -0.5543795290
   32       -0.3176552570
   33        0.1530329850
   34        0.0270577510
   35       -0.0121491740
   36        0.0986001120
   37       -0.0811089850
   38       -0.0047627560
   39        0.0038391690
   40       -0.0325526570
 Sym= A
 Ene=         16.00000000
 Spin= Alpha
 Occup=       -0.00000000
    1       -0.1012883600
    2       -0.3322134930
    3        1.7473242800
    4       -0.1223611530
    5       -0.0815401830
    6        0.1867181480
    7        0.3089217760
    8        0.1301575990
    9        0.2894344320
   10       -0.4955664400
   11       -1.0825485500
   12        0.6703435470
   13       -0.1089256950
   14       -0.1156523880
   15        0.3958113850
   16        0.0633250280
   17        0.1235808060
   18       -1.0146943200
   19       -0.0094589060
   20        0.0079263460
   21        0.0788861680
   22        0.0202728050
   23       -0.1401664400
   24        0.6115015110
   25        0.2110265860
   26        0.2243955080
   27       -0.1345214600
   28        0.0145908900
   29       -0.0077479450
   30        0.0564076290
   31       -0.1548288880
   32       -0.2320650740
   33       -0.0347717110
   34        0.0232149020
   35        0.0315693120
   36        0.0832773550
   37        0.0128579700
   38       -0.0147096730
   39        0.0147551210
   40       -0.0153790610
 Sym= A
 Ene=         17.00000000
 Spin= Alpha
 Occup=       -0.00000000
    1        0.0008145730
    2       -0.1352951760
    3        0.0538457450
    4        0.1926001270
    5       -0.2733904870
    6        0.5052258300
    7       -0.2315829010
    8        0.3618744550
    9       -1.0580443000
   10       -0.3128412260
   11        0.4409905000
   12       -0.5093769070
   13       -0.1427293330
   14       -0.3847573510
   15        0.4435679710
   16       -0.0366938190
   17        0.0564264060
   18        0.5480090170
   19       -0.0021358090
   20       -0.0010254790
   21       -0.1098770330
   22        0.2286461660
   23       -0.2337615330
   24       -0.4835233520
   25       -0.0988098720
   26       -0.1126408730
   27        0.1040769820
   28        0.0277462740
   29       -0.0524535750
   30        0.0591190420
   31        0.0953183490
   32       -0.2190709440
   33       -0.0129010320
   34        0.0262386590
   35        0.0649513180
   36        0.1336471500
   37        0.0753823290
   38        0.0111870540
   39       -0.0055828750
   40       -0.0048521210
 Sym= A
 Ene=         18.00000000
 Spin= Alpha
 Occup=        0.00000000
    1       -0.4326125770
    2        0.0257008830
    3        3.5853289400
    4       -0.2275718920
    5       -0.0104800330
    6       -0.0449876500
    7        0.2638733610
    8        0.0101839770
    9        0.1020400380
   10       -1.4318469300
   11       -1.5351811200
   12       -1.7335445300
   13        0.0138988160
   14        0.2318328900
   15       -0.0400698360
   16       -0.0049466020
   17       -0.0688516140
   18       -0.1501031900
   19        0.0036711690
   20       -0.0090783110
   21       -0.0245469460
   22       -0.0864388650
   23        0.0471999250
   24        0.0194995060
   25       -0.0826406900
   26       -0.0930071880
   27        0.2812713320
   28        0.0003008440
   29        0.0510412350
   30       -0.0184901970
   31        0.1661989510
   32       -0.5654065950
   33       -0.3455620700
   34       -0.0036017290
   35        0.0393376640
   36        0.0330135850
   37       -0.1602162940
   38        0.0070110850
   39       -0.0051719290
   40        0.0520854850
 Sym= A
 Ene=         19.00000000
 Spin= Alpha
 Occup=        0.00000000
    1       -0.0477906200
    2       -0.8143866350
    3        2.1647352200
    4       -0.6471320240
    5       -0.0742716880
    6       -0.0105824260
    7        1.1823991300
    8        0.0875547820
    9        0.4358183870
   10       -0.6618990700
   11        0.1277784640
   12       -0.0131344660
   13        0.0190613860
   14        0.4040691900
   15        0.0251484730
   16        0.0388931160
   17        0.0799324620
   18       -0.7423903000
   19       -0.0272647550
   20       -0.0009905230
   21        0.0157606160
   22       -0.2847032560
   23        0.0100111130
   24        0.5809828410
   25        0.1492411840
   26        0.1201460070
   27       -0.0568067880
   28       -0.0062282700
   29        0.0656048960
   30        0.0096329270
   31       -0.1463183630
   32       -0.6960477410
   33       -0.0981251550
   34       -0.0029332630
   35       -0.0228197040
   36       -0.0400981640
   37       -0.0706276090
   38       -0.0078418860
   39        0.0139049180
   40       -0.0074962660
 Sym= A
 Ene=         20.00000000
 Spin= Alpha
 Occup=        0.00000000
    1       -0.0273224680
    2       -0.0429687260
    3        0.3298399560
    4       -0.0031160470
    5        0.0788504760
    6        0.0115070830
    7       -0.0431777480
    8       -0.0772175540
    9        0.0703927070
   10       -0.2681910820
   11       -0.0463646230
   12        0.0153463710
   13        0.9962890460
   14       -0.2126042670
   15        0.1211572870
   16        0.0120101210
   17        0.0227715410
   18       -0.2127096180
   19       -0.0100388400
   20        0.0123373300
   21        0.0122467200
   22        0.0893045070
   23       -0.0410587410
   24        0.0732632640
   25        0.0316020310
   26        0.0284446570
   27        0.0079372040
   28       -0.0180077820
   29       -0.0312517540
   30        0.0184137710
   31        0.0540168660
   32       -0.0365937180
   33       -0.0204574600
   34       -0.1240505350
   35        0.0368247100
   36        0.0305070420
   37        0.0520782670
   38       -0.0035796120
   39        0.0022394240
   40       -0.0053849940
 Sym= A
 Ene=         21.00000000
 Spin= Alpha
 Occup=       -0.00000000
    1       -0.0706218130
    2       -0.8966762230
    3        2.5149681600
    4        0.0901878210
    5        0.4055600830
    6        0.1768080160
    7        0.3039651980
    8       -0.5242594880
    9        0.2045177630
   10       -0.3805014290
   11       -0.4430052760
   12       -0.0776314110
   13       -0.0984756860
   14       -0.5161300560
   15       -0.6024066070
   16        0.0430869270
   17        0.1141051940
   18       -0.8039010150
   19       -0.0110482200
   20       -0.0048348650
   21        0.0021278190
   22        0.0727503980
   23        0.2513052600
   24        0.5857090920
   25        0.1431229430
   26        0.1439627410
   27       -0.0402079990
   28        0.0048317120
   29       -0.0523865480
   30       -0.0885153550
   31       -0.3470042320
   32       -0.5200190180
   33        0.0718122130
   34        0.0020424040
   35        0.0327881550
   36        0.0118674120
   37       -0.0683928860
   38       -0.0165915490
   39        0.0019055540
   40       -0.0135539520
 Sym= A
 Ene=         22.00000000
 Spin= Alpha
 Occup=       -0.00000000
    1        0.0739578520
    2       -0.6420135000
    3        0.8171827800
    4        0.0068697090
    5       -0.0815147530
    6        0.2843988780
    7        1.0387306700
    8        0.1008541320
    9       -0.7398830440
   10        1.4319109100
   11       -0.2833258330
   12       -0.3477629930
   13        0.1534042980
   14        0.0250245700
   15        0.0445739760
   16       -0.0202042740
   17        0.0926051780
   18        0.2242471420
   19        0.0063405400
   20       -0.0025529050
   21       -0.1016208790
   22       -0.1680846340
   23       -0.0361400170
   24       -0.1151086330
   25       -0.0436259340
   26       -0.0116690480
   27        0.0105527330
   28       -0.0034948350
   29        0.0639653440
   30        0.0127645980
   31       -1.1403668500
   32       -0.5954112180
   33        0.3277972910
   34       -0.0194860880
   35       -0.1413704630
   36       -0.0257539240
   37        0.0507021720
   38        0.0054466700
   39       -0.0047734480
   40       -0.0194908720
 Sym= A
 Ene=         23.00000000
 Spin= Alpha
 Occup=       -0.00000000
    1        0.0747026650
    2        0.0740964710
    3       -1.2893020900
    4       -0.0112453760
    5       -0.0021958900
    6       -0.0738629210
    7       -0.0612394510
    8       -0.0178047800
    9       -0.9735463970
   10        0.2138141130
   11        0.2137285430
   12       -0.0789833800
   13       -0.0021256860
   14        0.0204264510
   15       -0.0057156930
   16       -0.0268081410
   17       -0.8991600260
   18        2.0520333600
   19       -0.6776694320
   20       -0.1382966860
   21        0.2058607480
   22        0.9041525720
   23        0.0659110150
   24       -1.2039747800
   25       -0.4932302030
   26       -0.2829923120
   27        0.2234490900
   28        0.0580762960
   29        0.3288110270
   30       -0.0304683670
   31        0.0570254870
   32       -0.1933856430
   33        0.0234351480
   34        0.0006561220
   35        0.0107657790
   36        0.2583776290
   37        0.0030315350
   38        0.0091559300
   39       -0.0408493880
   40        0.0311341780
 Sym= A
 Ene=         24.00000000
 Spin= Alpha
 Occup=        0.00000000
    1        0.0281867600
    2        0.0452371550
    3       -0.5094983120
    4        0.0044602950
    5        0.0199916440
    6       -0.0138924240
    7        0.0493592170
    8        0.0414964820
    9       -0.3978474070
   10        0.0812320460
   11        0.0856239720
   12       -0.0245597040
   13       -0.0056197380
   14        0.0055383860
   15       -0.0624273680
   16        0.0129374420
   17       -0.4923136280
   18        0.7834850220
   19        0.1298916130
   20        0.6670874480
   21        0.0169489690
   22       -0.0004495650
   23       -0.8816983550
   24       -0.4555630010
   25       -0.0667647220
   26       -0.1278771180
   27        0.0380592730
   28        0.1541645250
   29        0.0885494190
   30       -0.6307093610
   31        0.0033119090
   32       -0.0786983600
   33        0.0095962030
   34        0.0044355030
   35        0.0067169140
   36        0.3065126250
   37        0.0588427270
   38        0.0576181270
   39       -0.0131920830
   40        0.0410629230
 Sym= A
 Ene=         25.00000000
 Spin= Alpha
 Occup=       -0.00000000
    1        0.0643556550
    2        0.0213317050
    3       -1.1987920200
    4        0.0229215660
    5       -0.0002944060
    6       -0.0676654810
    7       -0.1248115730
    8       -0.0504496860
    9       -0.7766761520
   10        0.1039836600
   11        0.1668236700
   12        0.0456514640
   13        0.0030222210
   14       -0.0686306910
   15       -0.0130951490
   16       -0.0711580320
   17       -0.6380603910
   18        2.1731156500
   19        0.0522813920
   20       -0.0645469950
   21        0.5958699330
   22       -0.3662291260
   23        0.3772241560
   24       -1.3276887300
   25        0.0208975090
   26       -0.2893540140
   27       -0.2734730550
   28       -0.2588637360
   29       -0.7223030390
   30        0.0717266800
   31        0.0998773690
   32       -0.0798729730
   33        0.0071180860