[Molden Format]
 Molden2AIM, Version 5.0.2 (10/09/2020)           Time: Tue Apr  6 00:21:31 2021

[Atoms] AU
  O      1    8        0.0000000000        0.0000000000        0.0000000000
  O      2    8        0.0000000000        0.0000000000        2.7620617201
  H      3    1        1.7632934844        0.0000000000       -0.4771921162
  H      4    1        1.3507611636        1.1334231960        3.2392538382
[GTO]
    1    0
 S    6  1.0
    0.5484672000D+04    0.1831100116D-02
    0.8252350000D+03    0.1395010088D-01
    0.1880470000D+03    0.6844510432D-01
    0.5296450000D+02    0.2327140147D+00
    0.1689757000D+02    0.4701930297D+00
    0.5799635000D+01    0.3585210226D+00
 S    3  1.0
    0.1553962000D+02   -0.1107766479D+00
    0.3599934000D+01   -0.1480255295D+00
    0.1013762000D+01    0.1130766406D+01
 S    1  1.0
    0.2700058000D+00    0.1000000000D+01
 P    3  1.0
    0.1553962000D+02    0.7087426029D-01
    0.3599934000D+01    0.3397528096D+00
    0.1013762000D+01    0.7271585926D+00
 P    1  1.0
    0.2700058000D+00    0.1000000000D+01
 D    1  1.0
    0.8000000000D+00    0.1000000000D+01

    2    0
 S    6  1.0
    0.5484672000D+04    0.1831100116D-02
    0.8252350000D+03    0.1395010088D-01
    0.1880470000D+03    0.6844510432D-01
    0.5296450000D+02    0.2327140147D+00
    0.1689757000D+02    0.4701930297D+00
    0.5799635000D+01    0.3585210226D+00
 S    3  1.0
    0.1553962000D+02   -0.1107766479D+00
    0.3599934000D+01   -0.1480255295D+00
    0.1013762000D+01    0.1130766406D+01
 S    1  1.0
    0.2700058000D+00    0.1000000000D+01
 P    3  1.0
    0.1553962000D+02    0.7087426029D-01
    0.3599934000D+01    0.3397528096D+00
    0.1013762000D+01    0.7271585926D+00
 P    1  1.0
    0.2700058000D+00    0.1000000000D+01
 D    1  1.0
    0.8000000000D+00    0.1000000000D+01

    3    0
 S    3  1.0
    0.1873114000D+02    0.3349460926D-01
    0.2825394000D+01    0.2347270649D+00
    0.6401217000D+00    0.8137572250D+00
 S    1  1.0
    0.1612778000D+00    0.1000000000D+01
 P    1  1.0
    0.1100000000D+01    0.1000000000D+01

    4    0
 S    3  1.0
    0.1873114000D+02    0.3349460926D-01
    0.2825394000D+01    0.2347270649D+00
    0.6401217000D+00    0.8137572250D+00
 S    1  1.0
    0.1612778000D+00    0.1000000000D+01
 P    1  1.0
    0.1100000000D+01    0.1000000000D+01

[MO]
 Sym= A
 Ene=          1.00000000
 Spin= Alpha
 Occup=        1.99999800
    1        1.0108879500
    2       -0.0201984690
    3       -0.0494167860
    4        0.0032033780
    5        0.0001551020
    6        0.0023944910
    7        0.0007949570
    8       -0.0000972830
    9       -0.0015240660
   10        0.0009739500
   11        0.0005784270
   12       -0.0015523770
   13       -0.0000650540
   14       -0.0002088030
   15       -0.0000716390
   16        0.0006797410
   17       -0.0028268160
   18        0.0041792080
   19       -0.0002138330
   20       -0.0001341290
   21        0.0074158870
   22       -0.0002784840
   23       -0.0000729020
   24        0.0008760170
   25        0.0007241150
   26        0.0007436020
   27       -0.0014677160
   28        0.0002147240
   29        0.0001786310
   30        0.0002185350
   31       -0.0098393910
   32        0.0027531670
   33        0.0031485210
   34        0.0000035990
   35       -0.0005614920
   36       -0.0002634150
   37        0.0003837970
   38        0.0001066640
   39        0.0001006890
   40        0.0002013550
 Sym= A
 Ene=          2.00000000
 Spin= Alpha
 Occup=        1.99999900
    1        0.0006796240
    2       -0.0028270030
    3        0.0041789100
    4       -0.0002498050
    5       -0.0000344530
    6       -0.0074158120
    7       -0.0002599820
    8       -0.0001240720
    9       -0.0008760360
   10        0.0009144750
   11        0.0005532160
   12       -0.0014676910
   13       -0.0000482420
   14       -0.0002766540
   15        0.0000524900
   16        1.0108876000
   17       -0.0201972120
   18       -0.0494156030
   19        0.0025540320
   20        0.0019402190
   21       -0.0023942410
   22        0.0005461780
   23        0.0005864020
   24        0.0015241790
   25        0.0007547600
   26        0.0007976330
   27       -0.0015523930
   28        0.0002359650
   29        0.0002058550
   30        0.0000786770
   31       -0.0002634010
   32        0.0003838310
   33        0.0001464110
   34       -0.0000083230
   35       -0.0002013560
   36       -0.0098388080
   37        0.0027532680
   38        0.0024138080
   39        0.0020209520
   40        0.0005614740
 Sym= A
 Ene=          3.00000000
 Spin= Alpha
 Occup=        2.00000200
    1       -0.0856144710
    2        0.2954362310
    3        0.3487857840
    4       -0.2261588060
    5        0.4991182530
    6       -0.1149289360
    7       -0.1481587100
    8        0.3615507510
    9       -0.0838182180
   10       -0.0092547520
   11        0.0091148700
   12        0.0001398830
   13        0.0178468800
   14       -0.0055678660
   15        0.0052820910
   16        0.0070912120
   17       -0.0175148330
   18       -0.0287425770
   19        0.0130059850
   20       -0.0262273420
   21        0.0380355680
   22        0.0164947200
   23       -0.0434450410
   24        0.0377741480
   25       -0.0014374010
   26       -0.0016118470
   27        0.0030492490
   28       -0.0009232040
   29        0.0055613130
   30       -0.0101188290
   31       -0.0376975290
   32       -0.0545289750
   33       -0.0052569830
   34        0.0159333170
   35       -0.0035654650
   36       -0.0039130650
   37        0.0096335270
   38        0.0003647870
   39       -0.0015198680
   40        0.0008247270
 Sym= A
 Ene=          4.00000000
 Spin= Alpha
 Occup=        2.00000100
    1       -0.0963863230
    2        0.3370225490
    3        0.3855792730
    4       -0.2523761520
    5       -0.4445717960
    6       -0.1180949860
    7       -0.1698319400
    8       -0.3226030670
    9       -0.0895724670
   10       -0.0093316180
   11        0.0081585780
   12        0.0011730400
   13       -0.0161314600
   14       -0.0075518850
   15       -0.0054766950
   16        0.0103695250
   17       -0.0242826040
   18       -0.0507694610
   19        0.0047237750
   20        0.0140506540
   21        0.0375318950
   22        0.0061724690
   23        0.0227745190
   24        0.0399250810
   25       -0.0019542920
   26       -0.0008505840
   27        0.0028048770
   28        0.0007893240
   29        0.0081543080
   30        0.0113922930
   31       -0.0383152640
   32       -0.0621574750
   33       -0.0059259040
   34       -0.0144744730
   35       -0.0035412770
   36        0.0243029020
   37        0.0290138390
   38       -0.0005043940
   39       -0.0000102770
   40        0.0021264730
 Sym= A
 Ene=          5.00000000
 Spin= Alpha
 Occup=        2.00000300
    1        0.0070919210
    2       -0.0175167720
    3       -0.0287484950
    4       -0.0068870790
    5        0.0284345400
    6       -0.0380499790
    7       -0.0152878360
    8        0.0438687430
    9       -0.0377865670
   10       -0.0022958880
   11       -0.0007528900
   12        0.0030487800
   13        0.0002593210
   14        0.0022458140
   15       -0.0113251680
   16       -0.0856288610
   17        0.2954881560
   18        0.3488210610
   19        0.1476509720
   20       -0.5276517970
   21        0.1149553710
   22        0.1189452460
   23       -0.3721588560
   24        0.0838281400
   25        0.0135593040
   26       -0.0136952450
   27        0.0001359420
   28       -0.0135383180
   29        0.0008701250
   30        0.0076262200
   31       -0.0039074290
   32        0.0096347370
   33       -0.0006975880
   34        0.0013988580
   35       -0.0008249420
   36       -0.0376260680
   37       -0.0545019470
   38        0.0062088120
   39       -0.0155895910
   40        0.0035635190
 Sym= A
 Ene=          6.00000000
 Spin= Alpha
 Occup=        1.99999900
    1        0.0103708130
    2       -0.0242876950
    3       -0.0507761320
    4        0.0126629970
    5       -0.0077109860
    6       -0.0375395750
    7        0.0193740880
    8       -0.0134679010
    9       -0.0399295260
   10       -0.0008239810
   11       -0.0019799250
   12        0.0028039080
   13       -0.0007634620
   14       -0.0135697040
   15        0.0034855930
   16       -0.0963886810
   17        0.3370262440
   18        0.3855811730
   19       -0.4790855970
   20        0.1783515360
   21        0.1181045030
   22       -0.3374590530
   23        0.1379706490
   24        0.0895772020
   25       -0.0158624040
   26        0.0146906240
   27        0.0011717790
   28       -0.0071420410
   29        0.0093050360
   30        0.0006585490
   31        0.0243096600
   32        0.0290175850
   33       -0.0003935620
   34       -0.0003149660
   35       -0.0021264590
   36       -0.0383038780
   37       -0.0621527790
   38       -0.0138444920
   39        0.0072780710
   40        0.0035410610
 Sym= A
 Ene=          7.00000000
 Spin= Alpha
 Occup=        1.99999800
    1       -0.0320980420
    2        0.1367861610
    3        0.0825129940
    4        0.0236252430
    5       -0.0000290890
    6        0.3945428650
    7        0.0366557260
    8        0.0028560600
    9        0.2468877440
   10       -0.0193522750
   11       -0.0176832310
   12        0.0370355100
   13        0.0008990720
   14        0.0177382190
   15        0.0021139450
   16       -0.0320976200
   17        0.1367817450
   18        0.0825140570
   19        0.0180523910
   20        0.0151918410
   21       -0.3945437640
   22        0.0298983670
   23        0.0213644990
   24       -0.2468856700
   25       -0.0178974850
   26       -0.0191388880
   27        0.0370363750
   28       -0.0011067680
   29       -0.0149467530
   30       -0.0097829690
   31       -0.0234853510
   32       -0.0427345470
   33       -0.0010036780
   34       -0.0003631690
   35        0.0101138420
   36       -0.0235044180
   37       -0.0427437920
   38       -0.0010010920
   39       -0.0003657680
   40       -0.0101132070
 Sym= A
 Ene=          8.00000000
 Spin= Alpha
 Occup=        1.99999900
    1       -0.0572129090
    2        0.2214629430
    3        0.1458796160
    4        0.4421681300
    5       -0.0022270800
    6       -0.0963592500
    7        0.2574751240
    8       -0.0000711810
    9       -0.0294405480
   10        0.0275554570
   11       -0.0114916350
   12       -0.0160638240
   13        0.0009296900
   14       -0.0012605100
   15        0.0003611260
   16        0.0061007660
   17       -0.0146164820
   18       -0.0229567630
   19       -0.0190928160
   20        0.0007350040
   21        0.0443043850
   22       -0.0292894750
   23        0.0039353440
   24        0.0454740700
   25        0.0001809740
   26       -0.0007746340
   27        0.0005936600
   28       -0.0007374270
   29       -0.0084936000
   30        0.0002713010
   31        0.3134800880
   32        0.1200551890
   33       -0.0327998270
   34        0.0005798900
   35        0.0091568200
   36       -0.0096560870
   37       -0.0110006000
   38       -0.0002851720
   39        0.0004912770
   40        0.0016031270
 Sym= A
 Ene=          9.00000000
 Spin= Alpha
 Occup=        2.00000200
    1        0.0060961670
    2       -0.0146024910
    3       -0.0229362690
    4       -0.0141832870
    5       -0.0128388360
    6       -0.0442725360
    7       -0.0199228750
    8       -0.0218490780
    9       -0.0454524840
   10       -0.0008461360
   11        0.0002503970
   12        0.0005957400
   13        0.0006710830
   14        0.0063335870
   15        0.0056701840
   16       -0.0571937420
   17        0.2213905330
   18        0.1457900760
   19        0.3372749690
   20        0.2860399840
   21        0.0963063440
   22        0.1971811070
   23        0.1656366870
   24        0.0294038780
   25        0.0122113740
   26        0.0038503960
   27       -0.0160617690
   28        0.0220436390
   29        0.0007336710
   30        0.0010847910
   31       -0.0096749310
   32       -0.0110147100
   33        0.0000990730
   34       -0.0005603840
   35       -0.0016029180
   36        0.3134894850
   37        0.1200687930
   38       -0.0247543040
   39       -0.0215249920
   40       -0.0091583330
 Sym= A
 Ene=         10.00000000
 Spin= Alpha
 Occup=       -0.00000000
    1       -0.0611247040
    2        0.2746530470
    3        0.1106713940
    4       -0.0127332750
    5        0.0022443880
    6        0.6068024950
    7        0.0257680120
    8        0.0080047750
    9        0.3639775380
   10       -0.0070699910
   11       -0.0012187510
   12        0.0539710700
   13        0.0008577620
   14        0.0238142620
   15        0.0036604600
   16        0.0611515660
   17       -0.2745801140
   18       -0.1112264190
   19        0.0078679770
   20        0.0095332760
   21        0.6065819590
   22       -0.0247786610
   23       -0.0102779170
   24        0.3641339130
   25        0.0039362360
   26        0.0044114540
   27       -0.0538360190
   28        0.0033568770
   29        0.0205614110
   30        0.0125557890
   31        0.0156722600
   32       -0.0112593980
   33       -0.0073839910
   34       -0.0000976620
   35        0.0039293500
   36       -0.0155893960
   37        0.0115225810
   38        0.0052575870
   39        0.0042515300
   40        0.0035993470
 Sym= A
 Ene=         11.00000000
 Spin= Alpha
 Occup=       -0.00000000
    1        0.0810873700
    2       -0.3761234480
    3       -0.3113438600
    4       -0.5729082410
    5        0.0020237290
    6        0.1830276830
    7       -0.4454462780
    8       -0.0002010170
    9        0.1192709260
   10       -0.0717771690
   11        0.0148540150
   12        0.0200178280
   13       -0.0010825920
   14        0.0189644000
   15        0.0002961670
   16        0.0046436470
   17       -0.0161535910
   18       -0.0422850180
   19        0.0473710420
   20        0.0033148760
   21        0.0017981950
   22        0.0350842730
   23       -0.0052455200
   24       -0.0030917540
   25        0.0073232090
   26        0.0031361000
   27       -0.0059327430
   28       -0.0002450770
   29        0.0000166410
   30       -0.0002905400
   31        1.0209093900
   32        0.3987262220
   33       -0.0652743880
   34        0.0013124470
   35        0.0205277220
   36       -0.0212614330
   37        0.0094434100
   38        0.0001025950
   39        0.0004941260
   40       -0.0015220720
 Sym= A
 Ene=         12.00000000
 Spin= Alpha
 Occup=        0.00000000
    1        0.0046707260
    2       -0.0161821490
    3       -0.0426592700
    4        0.0386944730
    5        0.0279862100
    6       -0.0019534080
    7        0.0230007260
    8        0.0265704920
    9        0.0032049610
   10        0.0054765030
   11        0.0051831270
   12       -0.0060497260
   13        0.0024582320
   14        0.0000478910
   15       -0.0003131240
   16        0.0809624030
   17       -0.3753202060
   18       -0.3104471990
   19       -0.4366945850
   20       -0.3690654170
   21       -0.1827583780
   22       -0.3414901480
   23       -0.2863739900
   24       -0.1193043790
   25       -0.0373322970
   26       -0.0203268360
   27        0.0203712670
   28       -0.0497636910
   29       -0.0150931020
   30       -0.0122603600
   31       -0.0211373160
   32        0.0098642400
   33        0.0004070190
   34       -0.0003186290
   35        0.0016440900
   36        1.0219247500
   37        0.3970396650
   38       -0.0475220470
   39       -0.0414963240
   40       -0.0199444700
 Sym= A
 Ene=         13.00000000
 Spin= Alpha
 Occup=       -0.00000000
    1       -0.0451492560
    2       -0.5480278050
    3        1.5936053000
    4       -0.0396190460
    5       -0.7728398750
    6       -0.1975976140
    7        0.1425936020
    8        0.8937096860
    9        0.8252061360
   10       -0.3074130170
   11       -0.3095548030
   12        0.1214981620
   13        0.0002555830
   14        0.1983939040
   15       -0.3945259500
   16        0.0536165890
   17        0.0448637940
   18       -0.9219255030
   19        0.0015841520
   20       -0.0142589690
   21        0.0541487320
   22       -0.0445573240
   23       -0.0900042850
   24        0.6512892590
   25        0.1512323680
   26        0.1530557170
   27       -0.0457001510
   28       -0.0069519910
   29        0.0339693650
   30       -0.0319824980
   31       -0.0138017540
   32       -0.1691465820
   33       -0.0283169170
   34       -0.0217078910
   35       -0.0281672990
   36        0.0517901530
   37       -0.0914601570
   38        0.0126052910
   39        0.0073995850
   40       -0.0101943260
 Sym= A
 Ene=         14.00000000
 Spin= Alpha
 Occup=       -0.00000000
    1       -0.0857788420
    2       -0.1028280110
    3        1.2597442900
    4       -0.6402495430
    5       -0.0471643560
    6       -0.2377260870
    7        1.2514407000
    8        0.0638768290
    9        0.4369152730
   10       -0.1876669630
   11       -0.3915554460
   12        0.1113099090
   13       -0.0865655790
   14       -0.6459366600
   15        0.1071204250
   16        0.0310935170
   17       -0.0064253240
   18       -0.5024351090
   19       -0.0275875540
   20       -0.0004970120
   21        0.0558968590
   22       -0.0795131160
   23       -0.0368354610
   24        0.3350028910
   25        0.0873903300
   26        0.0858608650
   27       -0.0402730130
   28        0.0035789780
   29       -0.0503536810
   30        0.0151492270
   31       -0.5670609790
   32       -0.4432256000
   33        0.0666010840
   34        0.0132213640
   35        0.0512906940
   36        0.0283036970
   37       -0.0215780700
   38        0.0041040930
   39        0.0049752590
   40        0.0045025660
 Sym= A
 Ene=         15.00000000
 Spin= Alpha
 Occup=       -0.00000000
    1       -0.0654645290
    2       -1.1069936600
    3        2.9987500400
    4       -0.2245125170
    5        0.1775562480
    6       -0.3738858140
    7        0.7323029570
    8       -0.1716886900
    9        1.3082168200
   10       -0.2242397870
   11       -0.3627800610
   12       -0.1409215960
   13        0.0069169160
   14        0.5332746910
   15        0.4351361440
   16        0.0880827840
   17        0.1165969120
   18       -1.6284220300
   19        0.0092985670
   20        0.0223248220
   21        0.0530940000
   22       -0.2676944360
   23       -0.1095257390
   24        1.0167732700
   25        0.2283377530
   26        0.2372577840
   27        0.0027991570
   28       -0.0403821760
   29        0.0988584640
   30        0.0532823550
   31       -0.2814076330
   32       -0.5408692720
   33       -0.0014892670
   34        0.0122647970
   35       -0.1014786210
   36        0.1510498350
   37       -0.0349759460
   38        0.0163206420
   39        0.0096875280
   40       -0.0409821170
 Sym= A
 Ene=         16.00000000
 Spin= Alpha
 Occup=       -0.00000000
    1       -0.0446470650
    2        0.0037822380
    3        0.3702417190
    4       -0.3222780500
    5       -0.0558268860
    6        0.5662468760
    7        0.4773896970
    8        0.0835967820
    9       -0.8162221600
   10       -0.4792452850
   11       -0.4254376100
   12        0.4006821950
   13        0.0124469310
   14        0.4625948330
   15        0.1494199430
   16        0.0056269840
   17        0.1149697390
   18       -0.0473921040
   19       -0.0135507800
   20       -0.0016125030
   21       -0.0172886710
   22       -0.2401423680
   23       -0.1203431800
   24       -0.1236828350
   25        0.0615542120
   26        0.0624973710
   27       -0.0625588010
   28       -0.0122050230
   29        0.0575841330
   30        0.0204425290
   31        0.0692177250
   32       -0.2772012680
   33       -0.1395733980
   34        0.0011914980
   35        0.0107739100
   36        0.1143767200
   37        0.1348240420
   38        0.0051619580
   39        0.0030715830
   40       -0.0081687290
 Sym= A
 Ene=         17.00000000
 Spin= Alpha
 Occup=       -0.00000000
    1        0.0146687120
    2       -0.3490733510
    3        0.3806804030
    4       -0.0890356940
    5       -0.1236317020
    6        0.3338297640
    7        0.1118328320
    8        0.1528607060
    9       -0.6290318760
   10       -0.6164121750
   11        0.8550974650
   12       -0.4784709960
   13       -0.1592405240
   14       -0.1209344360
   15        0.1030857640
   16       -0.0260815220
   17        0.0553244910
   18        0.3202736110
   19       -0.0193974180
   20       -0.0038412310
   21       -0.0927354510
   22        0.0288746490
   23       -0.0686017220
   24       -0.2389814030
   25       -0.0449469150
   26       -0.0844241140
   27        0.0683530820
   28        0.0025782620
   29       -0.0280479280
   30        0.0153302070
   31        0.2148148770
   32       -0.3402328490
   33       -0.0789677000
   34        0.0211890580
   35        0.0538884310
   36        0.0136543040
   37        0.0426339640
   38       -0.0084750250
   39        0.0006822620
   40       -0.0003918530
 Sym= A
 Ene=         18.00000000
 Spin= Alpha
 Occup=        0.00000000
    1       -0.0135619200
    2       -1.1515835600
    3        2.5748089000
    4        0.3398844750
    5        0.2601219380
    6        0.0855063270
    7       -0.2215056300
    8       -0.3276121280
    9        0.8568583240
   10       -0.4931707660
   11       -0.4610660290
   12        0.6279768410
   13        0.1729724160
   14       -0.4257575260
   15       -0.2195617280
   16        0.0872510140
   17        0.1476490140
   18       -1.4457389200
   19        0.0051259350
   20        0.0065305090
   21        0.0703900310
   22        0.2157225800
   23        0.1644528020
   24        1.1105402800
   25        0.3040876820
   26        0.2975308450
   27       -0.1835578680
   28        0.0059643420
   29       -0.0397650190
   30       -0.0258536090
   31       -0.1063309500
   32       -0.2659001190
   33        0.0811077780
   34       -0.0238623080
   35        0.0256315510
   36       -0.0585443500
   37       -0.1143727360
   38        0.0260613600
   39        0.0208743500
   40       -0.0183817100
 Sym= A
 Ene=         19.00000000
 Spin= Alpha
 Occup=        0.00000000
    1       -0.1581159040
    2        0.1932656380
    3        0.8935302740
    4       -0.2247854950
    5        0.0252662660
    6       -0.0627613490
    7        0.0972307050
    8       -0.0372953550
    9        0.0345546500
   10       -0.7817227400
   11       -0.2843897720
   12       -0.6512795420
   13        0.9182573620
   14        0.1031286850
   15       -0.1362663990
   16       -0.0092282110
   17       -0.0537911560
   18        0.0851362650
   19       -0.0143218160
   20       -0.0037578520
   21       -0.0074845670
   22       -0.0062623940
   23        0.0420583840
   24       -0.1011087850
   25       -0.0554710480
   26       -0.0699617780
   27        0.1246777860
   28       -0.0268178920
   29       -0.0029298630
   30       -0.0212319330
   31        0.2576053380
   32       -0.1361021180
   33       -0.1995871650
   34       -0.1201087220
   35        0.0453889540
   36        0.0216022360
   37       -0.0562849000
   38       -0.0098285230
   39       -0.0057499530
   40        0.0171183480
 Sym= A
 Ene=         20.00000000
 Spin= Alpha
 Occup=        0.00000000
    1       -0.3999024250
    2       -0.3001035860
    3        4.0214253300
    4       -0.0971791240
    5        0.0746120970
    6        0.0573414970
    7        0.3361098070
    8       -0.0940611250
    9        0.0546879730
   10       -1.1895092600
   11       -1.5967324000
   12       -1.6061237800
   13       -0.3166083660
   14       -0.0467377480
   15       -0.1101842080
   16        0.0152358490
   17        0.0159897160
   18       -0.5182599270
   19       -0.0071698560
   20       -0.0029586460
   21       -0.0327372310
   22       -0.0002049010
   23        0.0357649800
   24        0.1618418400
   25       -0.0180455710
   26       -0.0179958630
   27        0.2707937310
   28       -0.0046771730
   29       -0.0018885340
   30       -0.0290223680
   31       -0.0974624260
   32       -0.6882660820
   33       -0.2386849800
   34        0.0380143770
   35        0.0392861160
   36        0.0480165100
   37       -0.0279113120
   38       -0.0068310620
   39       -0.0086757530
   40        0.0256955130
 Sym= A
 Ene=         21.00000000
 Spin= Alpha
 Occup=       -0.00000000
    1        0.0417869500
    2       -0.4053977690
    3        0.5543948160
    4        0.2077400400
    5       -0.3588663210
    6        0.2707467070
    7        0.4329121570
    8        0.4706945460
    9       -0.6496320030
   10        0.9416219450
   11       -0.2315636710
   12       -0.2935376600
   13        0.2880994730
   14       -0.4178277290
   15        0.5292762280
   16       -0.0137203660
   17        0.0914142540
   18        0.1330435340
   19        0.0025614710
   20        0.0041271450
   21       -0.0828012820
   22       -0.0412276750
   23       -0.2571536210
   24       -0.1516133080
   25       -0.0384553440
   26       -0.0120803150
   27        0.0334455830
   28       -0.0258709270
   29       -0.0176813490
   30        0.0781247010
   31       -0.7907359510
   32       -0.3624418730
   33        0.2684098170
   34       -0.0282312570
   35       -0.0544003490
   36        0.0790638770
   37        0.0669620780
   38       -0.0066470400
   39       -0.0031542230
   40       -0.0086439760
 Sym= A
 Ene=         22.00000000
 Spin= Alpha
 Occup=       -0.00000000
    1        0.1107750220
    2       -0.4098931650
    3        0.0102421130
    4       -0.2096767610
    5        0.2307715960
    6        0.2283767800
    7        1.1146312300
    8       -0.3169040820
    9       -0.7413132970
   10        1.1767872300
   11        0.2478502440
   12       -0.1821352050
   13        0.0384547980
   14       -0.0064926090
   15       -0.6074465600
   16       -0.0282044930
   17        0.0812557580
   18        0.3696182220
   19       -0.0086098180
   20       -0.0088296750
   21       -0.0969639740
   22       -0.2154535730
   23        0.1701553350
   24       -0.2422485590
   25       -0.0588170910
   26       -0.0357544620
   27       -0.0073748300
   28       -0.0007727710
   29        0.0526254830
   30       -0.0863732790
   31       -0.9114646190
   32       -0.5122221740
   33        0.2721680430
   34       -0.0178807010
   35       -0.1049757550
   36        0.0008931720
   37        0.0834437300
   38        0.0040309020
   39       -0.0127590670
   40       -0.0045154640
 Sym= A
 Ene=         23.00000000
 Spin= Alpha
 Occup=        0.00000000
    1        0.0526386800
    2        0.0443422480
    3       -0.9055703330
    4       -0.0069301370
    5        0.0147081220
    6       -0.0529079900
    7       -0.0823999730
    8        0.0427302660
    9       -0.6449948650
   10        0.1446352660
   11        0.1549644900
   12       -0.0455456740
   13        0.0000969480
   14       -0.0050629660
   15       -0.0462951130
   16       -0.0429334340
   17       -0.5421632650
   18        1.5558791200
   19       -0.5053540600
   20        0.5864860870
   21        0.1936388080
   22        0.6447522770
   23       -0.6259970660
   24       -0.8173970330
   25       -0.2995696410
   26       -0.3028895920
   27        0.1193761530
   28       -0.0020187610
   29        0.0998249420
   30       -0.4320948380
   31        0.0467876830
   32       -0.0929632980
   33        0.0163226820
   34        0.0024010140
   35        0.0107259730
   36        0.0029026890
   37       -0.1513558760
   38       -0.0316423830
   39        0.0007956810
   40        0.0264165160
 Sym= A
 Ene=         24.00000000
 Spin= Alpha
 Occup=        0.00000000
    1        0.0339827910
    2       -0.0058153990
    3       -0.5504245100
    4       -0.0179020110
    5       -0.0159824410
    6       -0.0602827760
    7       -0.0799881290
    8       -0.0204330250
    9       -0.3713207320
   10        0.0985628490
   11        0.0910589780
   12       -0.0436932430
   13        0.0003079780
   14        0.0303138680
   15        0.0424028130
   16       -0.0878053650
   17       -0.1312843760
   18        1.3339475600
   19       -0.5237414670
   20       -0.3569515160
   21        0.2498639880
   22        0.9959163830
   23        0.7289340090
   24       -0.4905332090
   25       -0.3643528780
   26       -0.2504126760
   27        0.1191356510
   28        0.1313400100
   29        0.4442693930
   30        0.4880072320
   31        0.0266383250
   32       -0.0275075650
   33        0.0082960940
   34       -0.0011442030
   35       -0.0048119280
   36       -0.5589349270
   37       -0.4418177500
   38        0.0522678910
   39        0.0270282530
   40       -0.0480511710
 Sym= A
 Ene=         25.00000000
 Spin= Alpha
 Occup=        0.00000000
    1        0.0884087880
    2        0.1177021840
    3       -1.6337615400
    4        0.0231716050
    5       -0.0116542320
    6       -0.0532934870
    7       -0.2807045040
    8       -0.0882022230
    9       -1.0209361000
   10        0.1984581480
   11        0.2693341770
   12        0.0024520480
   13        0.0018014540
   14       -0.1120139070
   15       -0.0232460320
   16       -0.0667409030
   17       -1.1093571000
   18        3.0205060200
   19       -0.0656628380
   20       -0.2789369310
   21        0.3741095490
   22        0.4676726780
   23        0.6061391680
   24       -1.3061844000
   25       -0.2812686000
   26       -0.3162644870
   27       -0.1389630400
   28        0.0793095370
   29       -0.6848542220
   30       -0.0099554720
   31        0.1525663890
   32       -0.0347460400
   33        0.0209635440