[Molden Format]
 Molden2AIM, Version 5.0.2 (10/09/2020)           Time: Tue Apr  6 00:21:31 2021

[Atoms] AU
  O      1    8        0.0000000000        0.0000000000        0.0000000000
  O      2    8        0.0000000000        0.0000000000        2.7620617201
  H      3    1        1.7632934844        0.0000000000       -0.4771921162
  H      4    1       -0.3061926938        1.7365050820        3.2392538382
[GTO]
    1    0
 S    6  1.0
    0.5484672000D+04    0.1831100116D-02
    0.8252350000D+03    0.1395010088D-01
    0.1880470000D+03    0.6844510432D-01
    0.5296450000D+02    0.2327140147D+00
    0.1689757000D+02    0.4701930297D+00
    0.5799635000D+01    0.3585210226D+00
 S    3  1.0
    0.1553962000D+02   -0.1107766479D+00
    0.3599934000D+01   -0.1480255295D+00
    0.1013762000D+01    0.1130766406D+01
 S    1  1.0
    0.2700058000D+00    0.1000000000D+01
 P    3  1.0
    0.1553962000D+02    0.7087426029D-01
    0.3599934000D+01    0.3397528096D+00
    0.1013762000D+01    0.7271585926D+00
 P    1  1.0
    0.2700058000D+00    0.1000000000D+01
 D    1  1.0
    0.8000000000D+00    0.1000000000D+01

    2    0
 S    6  1.0
    0.5484672000D+04    0.1831100116D-02
    0.8252350000D+03    0.1395010088D-01
    0.1880470000D+03    0.6844510432D-01
    0.5296450000D+02    0.2327140147D+00
    0.1689757000D+02    0.4701930297D+00
    0.5799635000D+01    0.3585210226D+00
 S    3  1.0
    0.1553962000D+02   -0.1107766479D+00
    0.3599934000D+01   -0.1480255295D+00
    0.1013762000D+01    0.1130766406D+01
 S    1  1.0
    0.2700058000D+00    0.1000000000D+01
 P    3  1.0
    0.1553962000D+02    0.7087426029D-01
    0.3599934000D+01    0.3397528096D+00
    0.1013762000D+01    0.7271585926D+00
 P    1  1.0
    0.2700058000D+00    0.1000000000D+01
 D    1  1.0
    0.8000000000D+00    0.1000000000D+01

    3    0
 S    3  1.0
    0.1873114000D+02    0.3349460926D-01
    0.2825394000D+01    0.2347270649D+00
    0.6401217000D+00    0.8137572250D+00
 S    1  1.0
    0.1612778000D+00    0.1000000000D+01
 P    1  1.0
    0.1100000000D+01    0.1000000000D+01

    4    0
 S    3  1.0
    0.1873114000D+02    0.3349460926D-01
    0.2825394000D+01    0.2347270649D+00
    0.6401217000D+00    0.8137572250D+00
 S    1  1.0
    0.1612778000D+00    0.1000000000D+01
 P    1  1.0
    0.1100000000D+01    0.1000000000D+01

[MO]
 Sym= A
 Ene=          1.00000000
 Spin= Alpha
 Occup=        2.00000000
    1        1.0108237500
    2       -0.0199268170
    3       -0.0492281370
    4        0.0030229140
    5        0.0002764150
    6        0.0024120240
    7        0.0010207470
    8       -0.0001813270
    9       -0.0015653130
   10        0.0010307080
   11        0.0005111470
   12       -0.0015418560
   13        0.0000355570
   14       -0.0001137980
   15       -0.0001135260
   16        0.0007060690
   17       -0.0027942630
   18        0.0037641780
   19       -0.0000181380
   20       -0.0002314550
   21        0.0074181820
   22       -0.0001338340
   23       -0.0003630130
   24        0.0008364290
   25        0.0005246560
   26        0.0009179740
   27       -0.0014426300
   28       -0.0000682990
   29       -0.0001430700
   30        0.0003462160
   31       -0.0099050000
   32        0.0026484430
   33        0.0031465030
   34        0.0000168160
   35       -0.0005215930
   36       -0.0001334260
   37        0.0008188800
   38       -0.0000249490
   39        0.0001155170
   40        0.0001794240
 Sym= A
 Ene=          2.00000000
 Spin= Alpha
 Occup=        2.00000000
    1        0.0007061780
    2       -0.0027943110
    3        0.0037640670
    4       -0.0002249900
    5       -0.0000580810
    6       -0.0074181320
    7       -0.0003345590
    8       -0.0001947750
    9       -0.0008364230
   10        0.0009260110
   11        0.0005166060
   12       -0.0014426170
   13        0.0000136080
   14       -0.0003658520
   15        0.0000805270
   16        1.0108235700
   17       -0.0199262350
   18       -0.0492275490
   19       -0.0002532830
   20        0.0030251150
   21       -0.0024119330
   22       -0.0003553070
   23        0.0009732880
   24        0.0015653650
   25        0.0005158770
   26        0.0010259780
   27       -0.0015418550
   28       -0.0000698800
   29        0.0000919240
   30        0.0001317840
   31       -0.0001333950
   32        0.0008189110
   33        0.0001181090
   34       -0.0000038930
   35       -0.0001794230
   36       -0.0099048550
   37        0.0026484250
   38       -0.0005293880
   39        0.0031010840
   40        0.0005215880
 Sym= A
 Ene=          3.00000000
 Spin= Alpha
 Occup=        2.00000100
    1       -0.1181791070
    2        0.4072751590
    3        0.4780410500
    4       -0.3181905110
    5        0.2513079030
    6       -0.1598955680
    7       -0.2142940690
    8        0.1845866400
    9       -0.1153125240
   10       -0.0124351000
   11        0.0121494580
   12        0.0002856400
   13        0.0071184350
   14       -0.0084711890
   15        0.0032912590
   16        0.0093453700
   17       -0.0244699910
   18       -0.0325121630
   19        0.0186384740
   20       -0.0119153120
   21        0.0536029400
   22        0.0277436810
   23       -0.0204851880
   24        0.0539341770
   25       -0.0015138090
   26       -0.0025008650
   27        0.0040146750
   28        0.0011753330
   29        0.0070374770
   30       -0.0046524690
   31       -0.0513281330
   32       -0.0675917540
   33       -0.0070482440
   34        0.0077186210
   35       -0.0044212650
   36       -0.0117077720
   37        0.0052166980
   38        0.0008244410
   39       -0.0001224660
   40        0.0013994400
 Sym= A
 Ene=          4.00000000
 Spin= Alpha
 Occup=        1.99999900
    1       -0.0498731010
    2        0.1759115580
    3        0.1968672030
    4       -0.1271449470
    5       -0.6162412900
    6       -0.0537555340
    7       -0.0837148640
    8       -0.4496873990
    9       -0.0433249310
   10       -0.0033848310
   11        0.0022661230
   12        0.0011187070
   13       -0.0213443900
   14       -0.0028162900
   15       -0.0079775360
   16        0.0068134830
   17       -0.0144953880
   18       -0.0400420930
   19        0.0099918500
   20        0.0178646700
   21        0.0167861020
   22        0.0152937140
   23        0.0286294800
   24        0.0188331410
   25       -0.0022233850
   26        0.0007974330
   27        0.0014259530
   28       -0.0007181150
   29        0.0023456920
   30        0.0158726650
   31       -0.0195629510
   32       -0.0348432430
   33       -0.0027439250
   34       -0.0193539580
   35       -0.0012020160
   36        0.0274778640
   37        0.0299987530
   38        0.0007249300
   39       -0.0002570610
   40        0.0011313320
 Sym= A
 Ene=          5.00000000
 Spin= Alpha
 Occup=        1.99999900
    1        0.0093478120
    2       -0.0244751500
    3       -0.0325247050
    4       -0.0149721680
    5        0.0162953520
    6       -0.0536086330
    7       -0.0249873050
    8        0.0237742170
    9       -0.0539412160
   10       -0.0028199170
   11       -0.0011954420
   12        0.0040153610
   13        0.0009095410
   14        0.0057983080
   15       -0.0061235910
   16       -0.1181974430
   17        0.4073369790
   18        0.4781074170
   19        0.3025598200
   20       -0.2697760120
   21        0.1599142900
   22        0.2188604340
   23       -0.1790275810
   24        0.1153263390
   25        0.0093014480
   26       -0.0095870510
   27        0.0002856030
   28        0.0115375900
   29       -0.0047107630
   30        0.0077717080
   31       -0.0117025100
   32        0.0052244920
   33       -0.0002636760
   34        0.0007902990
   35       -0.0013999360
   36       -0.0513256170
   37       -0.0675995410
   38        0.0088196960
   39       -0.0056036130
   40        0.0044213700
 Sym= A
 Ene=          6.00000000
 Spin= Alpha
 Occup=        1.99999700
    1        0.0068100210
    2       -0.0144864900
    3       -0.0400296040
    4        0.0158607820
    5        0.0129261860
    6       -0.0167646410
    7        0.0255452200
    8        0.0200177470
    9       -0.0188124910
   10        0.0009196040
   11       -0.0023445350
   12        0.0014249330
   13       -0.0000783260
   14       -0.0152256250
   15       -0.0050649820
   16       -0.0498335760
   17        0.1757720750
   18        0.1967098220
   19       -0.5848899840
   20       -0.2321648390
   21        0.0536981860
   22       -0.4283838690
   23       -0.1604892260
   24        0.0432859900
   25        0.0084154850
   26       -0.0095352460
   27        0.0011197610
   28       -0.0189448850
   29        0.0073690730
   30        0.0041562150
   31        0.0274803830
   32        0.0299962430
   33       -0.0003785950
   34        0.0006686050
   35       -0.0011307800
   36       -0.0195661950
   37       -0.0348288770
   38       -0.0185862420
   39       -0.0060598950
   40        0.0012011030
 Sym= A
 Ene=          7.00000000
 Spin= Alpha
 Occup=        1.99999700
    1       -0.0320960620
    2        0.1365610860
    3        0.0822820390
    4        0.0228670620
    5        0.0008511730
    6        0.3949800400
    7        0.0321389780
    8        0.0051750710
    9        0.2475607350
   10       -0.0203421740
   11       -0.0167295960
   12        0.0370717700
   13        0.0000366890
   14        0.0149351660
   15        0.0034277680
   16       -0.0320956010
   17        0.1365585760
   18        0.0822794070
   19       -0.0031303030
   20        0.0226670490
   21       -0.3949805740
   22       -0.0004824360
   23        0.0325500210
   24       -0.2475608940
   25       -0.0168492850
   26       -0.0202225570
   27        0.0370718390
   28        0.0007471890
   29       -0.0007825640
   30       -0.0153029340
   31       -0.0198420280
   32       -0.0441175160
   33       -0.0010983740
   34       -0.0004165000
   35        0.0094620320
   36       -0.0198422760
   37       -0.0441175080
   38       -0.0002185780
   39       -0.0011532390
   40       -0.0094619990
 Sym= A
 Ene=          8.00000000
 Spin= Alpha
 Occup=        2.00000200
    1       -0.0587457220
    2        0.2270872200
    3        0.1517158450
    4        0.4437057280
    5        0.0029234840
    6       -0.0927322730
    7        0.2593879240
    8        0.0025898410
    9       -0.0299031660
   10        0.0263563630
   11       -0.0106429050
   12       -0.0157134550
   13        0.0015300480
   14       -0.0015413080
   15       -0.0004356780
   16        0.0072459550
   17       -0.0155979320
   18       -0.0344538520
   19       -0.0187218060
   20       -0.0046161830
   21        0.0411862260
   22       -0.0333400830
   23       -0.0043318390
   24        0.0434204270
   25        0.0007198390
   26       -0.0012657500
   27        0.0005459120
   28       -0.0005546250
   29       -0.0088898910
   30        0.0014768870
   31        0.3110617070
   32        0.1117984350
   33       -0.0333398520
   34        0.0005204170
   35        0.0081565460
   36        0.0058653740
   37        0.0013716750
   38       -0.0009133380
   39       -0.0002969980
   40        0.0015722870
 Sym= A
 Ene=          9.00000000
 Spin= Alpha
 Occup=        2.00000300
    1        0.0072457590
    2       -0.0155973950
    3       -0.0344573000
    4       -0.0012798120
    5       -0.0192387840
    6       -0.0411845390
    7        0.0015339170
    8       -0.0335854240
    9       -0.0434184310
   10       -0.0010410360
   11        0.0004953970
   12        0.0005456400
   13       -0.0009136830
   14       -0.0029991330
   15        0.0084986900
   16       -0.0587459820
   17        0.2270860720
   18        0.1517135070
   19       -0.0742149930
   20        0.4374668250
   21        0.0927297220
   22       -0.0425254450
   23        0.2558924140
   24        0.0299018620
   25       -0.0099806850
   26        0.0256939880
   27       -0.0157133040
   28       -0.0058702520
   29        0.0001618590
   30        0.0015934710
   31        0.0058749880
   32        0.0013765450
   33       -0.0001339060
   34       -0.0009504210
   35       -0.0015720460
   36        0.3110619970
   37        0.1117979950
   38        0.0063004620
   39       -0.0327431900
   40       -0.0081566150
 Sym= A
 Ene=         10.00000000
 Spin= Alpha
 Occup=        0.00000000
    1       -0.0608762890
    2        0.2758988670
    3        0.1036531520
    4       -0.0145075720
    5        0.0043080740
    6        0.6069419430
    7        0.0106367480
    8        0.0125427490
    9        0.3646722310
   10       -0.0082413720
   11        0.0005473330
   12        0.0555149570
   13       -0.0001804470
   14        0.0185648370
   15        0.0057672610
   16        0.0608841770
   17       -0.2759531510
   18       -0.1036786730
   19       -0.0067065400
   20        0.0135414950
   21        0.6069459950
   22       -0.0105563910
   23       -0.0127278670
   24        0.3646729780
   25       -0.0003569610
   26        0.0079672350
   27       -0.0554346900
   28       -0.0015639500
   29        0.0024248880
   30        0.0192994340
   31        0.0228499950
   32       -0.0075820770
   33       -0.0071515810
   34       -0.0000385540
   35        0.0048072630
   36       -0.0227885440
   37        0.0076098570
   38       -0.0011382250
   39        0.0069897080
   40        0.0047480750
 Sym= A
 Ene=         11.00000000
 Spin= Alpha
 Occup=       -0.00000000
    1        0.0811433420
    2       -0.3780223450
    3       -0.3059785430
    4       -0.5706453610
    5       -0.0022315560
    6        0.1767816760
    7       -0.4442212490
    8       -0.0019233020
    9        0.1204658910
   10       -0.0721887370
   11        0.0131559900
   12        0.0188467180
   13       -0.0013751160
   14        0.0195968910
   15        0.0006856500
   16        0.0035594360
   17       -0.0187392280
   18       -0.0295335850
   19        0.0433527640
   20        0.0097179280
   21        0.0008546040
   22        0.0429949580
   23        0.0033169350
   24        0.0003709800
   25        0.0051825660
   26        0.0027034290
   27       -0.0075406950
   28        0.0011320580
   29        0.0003018560
   30       -0.0003362790
   31        1.0311702900
   32        0.3873515390
   33       -0.0672346210
   34        0.0014645040
   35        0.0188977720
   36       -0.0155211600
   37        0.0025107030
   38       -0.0001914780
   39        0.0010050700
   40       -0.0004900420
 Sym= A
 Ene=         12.00000000
 Spin= Alpha
 Occup=       -0.00000000
    1        0.0035595240
    2       -0.0187213480
    3       -0.0295744760
    4        0.0020123800
    5        0.0443633900
    6       -0.0008653520
    7       -0.0042300220
    8        0.0429431650
    9       -0.0003682040
   10        0.0024601150
   11        0.0054805860
   12       -0.0075804200
   13        0.0005900700
   14        0.0003962920
   15       -0.0002491140
   16        0.0811253240
   17       -0.3779518790
   18       -0.3058378800
   19        0.0967645640
   20       -0.5623163230
   21       -0.1767705790
   22        0.0754788670
   23       -0.4377836560
   24       -0.1204539840
   25        0.0109266320
   26       -0.0700825130
   27        0.0188706010
   28        0.0153424610
   29        0.0027109820
   30       -0.0194628280
   31       -0.0155412600
   32        0.0025617080
   33        0.0010339560
   34       -0.0000146040
   35        0.0004920550
   36        1.0312833000
   37        0.3871181250
   38        0.0127985490
   39       -0.0658973380
   40       -0.0188990950
 Sym= A
 Ene=         13.00000000
 Spin= Alpha
 Occup=        0.00000000
    1       -0.0367154070
    2       -0.8014363270
    3        1.9793898600
    4        0.2899809890
    5       -0.6663365770
    6       -0.2284066350
    7       -0.4033531540
    8        0.7815568780
    9        1.1522487200
   10       -0.3805314400
   11       -0.3843211800
   12        0.1991566970
   13        0.0759079270
   14        0.2914963740
   15       -0.2022523890
   16        0.0713685250
   17        0.0603055540
   18       -1.2193243300
   19        0.0090561630
   20       -0.0080672320
   21        0.0719692630
   22        0.0154121660
   23       -0.0715683870
   24        0.9132501350
   25        0.2076934510
   26        0.1985341490
   27       -0.0717451450
   28       -0.0013792770
   29        0.0324792080
   30       -0.0055891710
   31        0.1603562230
   32       -0.0441647260
   33       -0.0350448860
   34       -0.0249106400
   35       -0.0403695260
   36        0.0582110840
   37       -0.1768621920
   38       -0.0017180990
   39        0.0224851460
   40       -0.0109716180
 Sym= A
 Ene=         14.00000000
 Spin= Alpha
 Occup=        0.00000000
    1        0.0407251640
    2       -0.3639556410
    3        0.1900483110
    4        0.4160179240
    5        0.4502378370
    6        0.0861455720
    7       -0.7810577550
    8       -0.5172069450
    9        0.1608156630
   10       -0.1271228940
   11        0.2061192140
   12       -0.0417490010
   13       -0.0036095470
   14        0.6879965250
   15        0.2594970300
   16        0.0105009800
   17        0.0426604590
   18       -0.2188148590
   19        0.0169575860
   20        0.0125058780
   21       -0.0155064980
   22        0.0004512530
   23        0.0619201660
   24        0.1701908160
   25        0.0409067920
   26        0.0258184040
   27        0.0024396550
   28       -0.0003580240
   29        0.0670793930
   30        0.0252722440
   31        0.4406826760
   32        0.1570919860
   33       -0.0843730930
   34        0.0136863920
   35       -0.0599996340
   36       -0.0038644130
   37       -0.0275778100
   38        0.0038883910
   39        0.0048673660
   40       -0.0092845680
 Sym= A
 Ene=         15.00000000
 Spin= Alpha
 Occup=        0.00000000
    1       -0.0801753090
    2       -0.8958887700
    3        2.7806685700
    4       -0.2663077750
    5        0.0278327110
    6       -0.5046970220
    7        0.8493593450
    8        0.0213631620
    9        1.3363302600
   10       -0.1119667580
   11       -0.3743253390
   12       -0.2120186550
   13       -0.1065990050
   14       -0.1956269340
   15        0.6331364240
   16        0.0762380630
   17        0.0615761670
   18       -1.4088234200
   19       -0.0163106000
   20        0.0242935570
   21        0.0639131900
   22       -0.0797466370
   23       -0.1707464890
   24        0.9317096490
   25        0.2134242930
   26        0.1592529710
   27        0.0153620220
   28        0.0131585990
   29        0.0109232630
   30        0.0844259810
   31       -0.5120627410
   32       -0.5159558560
   33        0.0868400960
   34        0.0301720780
   35       -0.0397971990
   36        0.1125013440
   37       -0.0940179940
   38       -0.0012911320
   39        0.0162869120
   40       -0.0363582200
 Sym= A
 Ene=         16.00000000
 Spin= Alpha
 Occup=        0.00000000
    1       -0.0705618840
    2       -0.2563226190
    3        1.1964743700
    4       -0.2760752180
    5       -0.1539812100
    6        0.4463433610
    7        0.4837571570
    8        0.2246205290
    9       -0.3735762190
   10       -0.5751104270
   11       -0.6446687450
   12        0.4733951370
   13       -0.0627420330
   14        0.2495619260
   15        0.4407199400
   16        0.0315905540
   17        0.1329251270
   18       -0.4975227910
   19       -0.0118958890
   20        0.0062077820
   21        0.0154143360
   22       -0.0940464620
   23       -0.2206544860
   24        0.2246974340
   25        0.1480743290
   26        0.1244882820
   27       -0.0923477280
   28        0.0049932060
   29        0.0360332450
   30        0.0631645860
   31       -0.0225271770
   32       -0.3399807330
   33       -0.1060620600
   34        0.0171507010
   35        0.0188868030
   36        0.1044604670
   37        0.0702656980
   38        0.0008712510
   39        0.0150412220
   40       -0.0124262880
 Sym= A
 Ene=         17.00000000
 Spin= Alpha
 Occup=        0.00000000
    1        0.0328709630
    2       -0.1390544090
    3       -0.2415841070
    4        0.0374341330
    5       -0.3152240610
    6        0.4189991180
    7       -0.0183655290
    8        0.3959781960
    9       -1.0265923900
   10       -0.2553013370
   11        0.8371686090
   12       -0.6383690470
   13       -0.0579261090
   14       -0.1778379340
   15        0.2300114600
   16       -0.0507641300
   17        0.0297516560
   18        0.7522070810
   19       -0.0077925110
   20       -0.0111691820
   21       -0.1272963340
   22        0.0806185700
   23       -0.1870087460
   24       -0.5519190520
   25       -0.1204195590
   26       -0.1734403120
   27        0.1146470550
   28        0.0073234610
   29       -0.0302790870
   30        0.0293467470
   31        0.1200563410
   32       -0.2540291900
   33       -0.0283303740
   34        0.0088561620
   35        0.0427102910
   36        0.0841290360
   37        0.0328267200
   38        0.0013658120
   39       -0.0189467790
   40        0.0014354090
 Sym= A
 Ene=         18.00000000
 Spin= Alpha
 Occup=        0.00000000
    1       -0.1860005820
    2       -0.1331182890
    3        1.9034245700
    4       -0.0599711930
    5       -0.1176512250
    6        0.1882776070
    7        0.7604915480
    8        0.1458337140
    9       -0.7407558930
   10        0.4449665960
   11       -1.0551636800
   12       -1.3725907700
   13        0.0295215580
   14        0.0684308550
   15        0.0321392080
   16       -0.0380390130
   17        0.0037688700
   18        0.4177779600
   19        0.0040774810
   20       -0.0093821200
   21       -0.1078002150
   22       -0.1160507810
   23       -0.0513293010
   24       -0.3705161200
   25       -0.1479975470
   26       -0.1341601830
   27        0.2154380370
   28        0.0005819250
   29        0.0594945490
   30       -0.0045537810
   31       -0.7394201020
   32       -0.6168525090
   33        0.0584759480
   34       -0.0048368630
   35       -0.0756356780
   36        0.0313598660
   37        0.0044279580
   38        0.0051284420
   39       -0.0165619160
   40        0.0207343010
 Sym= A
 Ene=         19.00000000
 Spin= Alpha
 Occup=        0.00000000
    1       -0.1385349150
    2       -0.0098260230
    3        1.1669445600
    4       -0.0608027460
    5        0.0547425090
    6       -0.0600602100
    7       -0.0779352550
    8       -0.0858253270
    9        0.2443318880
   10       -0.7027447210
   11       -0.4238471160
   12       -0.4029639710
   13       -0.9639944380
   14        0.0950957130
   15       -0.1922347040
   16        0.0076863020
   17       -0.0311450370
   18       -0.1746687570
   19       -0.0012996100
   20       -0.0126328960
   21        0.0154294430
   22        0.0043766110
   23        0.1164848480
   24        0.1368987910
   25        0.0012393460
   26        0.0023654220
   27        0.0588896690
   28        0.0228718920
   29        0.0047268480
   30       -0.0358951140
   31        0.2336785580
   32       -0.1030529840
   33       -0.1577329490
   34        0.1186586060
   35        0.0314304010
   36       -0.0158351880
   37       -0.0924888040
   38       -0.0047630390
   39       -0.0010482550
   40        0.0183769250
 Sym= A
 Ene=         20.00000000
 Spin= Alpha
 Occup=        0.00000000
    1        0.0292179920
    2       -0.4526102370
    3        0.7185555050
    4        0.5932676960
    5        0.1106433540
    6        0.1806050340
    7       -0.5626710020
    8       -0.1163682270
    9        0.0255490500
   10        0.2685111070
   11       -0.3659690770
   12        0.2956270330
   13       -0.1009536200
   14       -0.7835317670
   15        0.1464331610
   16        0.0300875570
   17        0.0902543970
   18       -0.4836435290
   19        0.0113230150
   20        0.0098626810
   21        0.0072766730
   22        0.2621925510
   23       -0.0378180830
   24        0.3156655980
   25        0.1050426410
   26        0.1051860990
   27       -0.0631926150
   28        0.0080896790
   29       -0.0964657550
   30        0.0208746010
   31       -0.2710893130
   32        0.0300933280
   33        0.1941443240
   34        0.0182418800
   35        0.0345413360
   36        0.0441838110
   37        0.0121664240
   38       -0.0100853990
   39        0.0096842370
   40       -0.0208570720
 Sym= A
 Ene=         21.00000000
 Spin= Alpha
 Occup=        0.00000000
    1       -0.3816228700
    2       -0.1494429220
    3        3.4962599800
    4       -0.1498968030
    5        0.1640876200
    6       -0.1053530380
    7       -0.1653448160
    8       -0.2018127890
    9        0.6354357190
   10       -2.0016778600
   11       -1.1671671200
   12       -1.0473432800
   13        0.3515087460
   14       -0.0563342760
   15       -0.1157386620
   16        0.0343457940
   17       -0.0384149950
   18       -0.7133972550
   19       -0.0107032290
   20       -0.0058621170
   21        0.0428924530
   22        0.0827039340
   23        0.1312065060
   24        0.4315544690
   25        0.0559625690
   26        0.0253857550
   27        0.1674564280
   28       -0.0070001630
   29       -0.0259406560
   30       -0.0321471390
   31        0.5506055840
   32       -0.3665723500
   33       -0.3938060790
   34       -0.0464496250
   35        0.1162888660
   36        0.0315449270
   37       -0.1726844710
   38       -0.0028650810
   39        0.0025887010
   40        0.0351829970
 Sym= A
 Ene=         22.00000000
 Spin= Alpha
 Occup=       -0.00000000
    1        0.0223823000
    2       -1.2394211500
    3        2.5068454400
    4       -0.2186374030
    5        0.2867153470
    6        0.1899560070
    7        1.0942441500
    8       -0.3869576020
    9        0.1673963100
   10        0.1463737340
   11       -0.1169964770
   12        0.1237420690
   13        0.0466574910
   14       -0.1000850970
   15       -0.5481212120
   16        0.0417054030
   17        0.1508300130
   18       -0.7966405330
   19       -0.0181786100
   20       -0.0072537070
   21       -0.0185985480
   22       -0.1428233520
   23        0.2810832020
   24        0.7012098960
   25        0.1665186360
   26        0.1898297620
   27       -0.1197392880
   28       -0.0069572310
   29        0.0279609790
   30       -0.0650826970
   31       -0.7133176190
   32       -0.7889851230
   33        0.1657246200
   34       -0.0162532450
   35       -0.0555847440
   36       -0.0814077460
   37       -0.0908894900
   38       -0.0027481880
   39        0.0244881040
   40       -0.0174423930
 Sym= A
 Ene=         23.00000000
 Spin= Alpha
 Occup=       -0.00000000
    1        0.0715789100
    2        0.0606672510
    3       -1.2238066900
    4       -0.0090828710
    5        0.0058938630
    6       -0.0719969350
    7       -0.0731277990
    8        0.0014641430
    9       -0.9168508810
   10        0.2004776270
   11        0.2078908990
   12       -0.0725499260
   13       -0.0029226220
   14        0.0116086500
   15       -0.0305017910
   16       -0.0380261050
   17       -0.8012854260
   18        1.9954823200
   19       -0.7103490720
   20        0.1568322340
   21        0.2315574270
   22        0.8426117500
   23       -0.2373428370
   24       -1.1561773000
   25       -0.4118024480
   26       -0.3577284710
   27        0.1979129140
   28        0.0695169360
   29        0.2539914110
   30       -0.2444774650
   31        0.0582795210
   32       -0.1777596810
   33        0.0229356770
   34        0.0018675920
   35        0.0109027460
   36        0.1491673530
   37       -0.0509126690
   38       -0.0195645660
   39       -0.0380468170
   40        0.0397375810
 Sym= A
 Ene=         24.00000000
 Spin= Alpha
 Occup=       -0.00000000
    1        0.0119133520
    2        0.0431389030
    3       -0.2420293480
    4        0.0099319860
    5        0.0199449750
    6        0.0137521690
    7        0.0605376680
    8        0.0114941950
    9       -0.1879755130
   10        0.0300820360
   11        0.0442310090
   12        0.0009935470
   13       -0.0033766550
   14       -0.0127370490
   15       -0.0710507450
   16        0.0397636890
   17       -0.3781140600
   18        0.2289873150
   19        0.3628426070
   20        0.4934721180
   21       -0.0803617360
   22       -0.3633114260
   23       -0.8657136210
   24       -0.1843995010
   25        0.1876002540
   26       -0.1250122120
   27       -0.0374068790
   28        0.0634580240
   29       -0.1286227760
   30       -0.7225865870
   31       -0.0029399650
   32       -0.0311802170
   33        0.0044961340
   34        0.0046887490
   35        0.0094674880
   36        0.4430848730
   37        0.1558728860
   38        0.0254937850
   39       -0.0799229900
   40        0.0599498590
 Sym= A
 Ene=         25.00000000
 Spin= Alpha
 Occup=        0.00000000
    1        0.0758021770
    2        0.0614693700
    3       -1.4017943700
    4        0.0264242030
    5       -0.0117406460
    6       -0.0633494460
    7       -0.1545822760
    8       -0.1074688650
    9       -0.9264917770
   10        0.1554853120
   11        0.2147964020
   12        0.0159231240
   13        0.0019255020
   14       -0.0821827010
   15       -0.0251429860
   16       -0.0797445140
   17       -0.8920244210
   18        2.7682510200
   19        0.0746619010
   20       -0.2559108050
   21        0.5030295150
   22       -0.1275483330
   23        0.8373926960
   24       -1.3295043100
   25       -0.3307806530
   26       -0.1494234520
   27       -0.2140787510
   28       -0.1519933360
   29       -0.6606306720
   30        0.0842924150
   31        0.1122662260
   32       -0.0930460850
   33        0.0163178710