[Molden Format]
 Molden2AIM, Version 5.0.2 (10/09/2020)           Time: Tue Apr  6 00:21:31 2021

[Atoms] AU
  O      1    8        0.0000000000        0.0000000000        0.0000000000
  O      2    8        0.0000000000        0.0000000000        2.7620617201
  H      3    1        1.7632934844        0.0000000000       -0.4771921162
  H      4    1        1.5270569459        0.8816467365        3.2392538382
[GTO]
    1    0
 S    6  1.0
    0.5484672000D+04    0.1831100116D-02
    0.8252350000D+03    0.1395010088D-01
    0.1880470000D+03    0.6844510432D-01
    0.5296450000D+02    0.2327140147D+00
    0.1689757000D+02    0.4701930297D+00
    0.5799635000D+01    0.3585210226D+00
 S    3  1.0
    0.1553962000D+02   -0.1107766479D+00
    0.3599934000D+01   -0.1480255295D+00
    0.1013762000D+01    0.1130766406D+01
 S    1  1.0
    0.2700058000D+00    0.1000000000D+01
 P    3  1.0
    0.1553962000D+02    0.7087426029D-01
    0.3599934000D+01    0.3397528096D+00
    0.1013762000D+01    0.7271585926D+00
 P    1  1.0
    0.2700058000D+00    0.1000000000D+01
 D    1  1.0
    0.8000000000D+00    0.1000000000D+01

    2    0
 S    6  1.0
    0.5484672000D+04    0.1831100116D-02
    0.8252350000D+03    0.1395010088D-01
    0.1880470000D+03    0.6844510432D-01
    0.5296450000D+02    0.2327140147D+00
    0.1689757000D+02    0.4701930297D+00
    0.5799635000D+01    0.3585210226D+00
 S    3  1.0
    0.1553962000D+02   -0.1107766479D+00
    0.3599934000D+01   -0.1480255295D+00
    0.1013762000D+01    0.1130766406D+01
 S    1  1.0
    0.2700058000D+00    0.1000000000D+01
 P    3  1.0
    0.1553962000D+02    0.7087426029D-01
    0.3599934000D+01    0.3397528096D+00
    0.1013762000D+01    0.7271585926D+00
 P    1  1.0
    0.2700058000D+00    0.1000000000D+01
 D    1  1.0
    0.8000000000D+00    0.1000000000D+01

    3    0
 S    3  1.0
    0.1873114000D+02    0.3349460926D-01
    0.2825394000D+01    0.2347270649D+00
    0.6401217000D+00    0.8137572250D+00
 S    1  1.0
    0.1612778000D+00    0.1000000000D+01
 P    1  1.0
    0.1100000000D+01    0.1000000000D+01

    4    0
 S    3  1.0
    0.1873114000D+02    0.3349460926D-01
    0.2825394000D+01    0.2347270649D+00
    0.6401217000D+00    0.8137572250D+00
 S    1  1.0
    0.1612778000D+00    0.1000000000D+01
 P    1  1.0
    0.1100000000D+01    0.1000000000D+01

[MO]
 Sym= A
 Ene=          1.00000000
 Spin= Alpha
 Occup=        1.99999900
    1        1.0108911100
    2       -0.0202122740
    3       -0.0494294160
    4        0.0032201180
    5        0.0001189810
    6        0.0023892140
    7        0.0007715930
    8       -0.0000737940
    9       -0.0015193900
   10        0.0009534450
   11        0.0006006070
   12       -0.0015540520
   13       -0.0000574540
   14       -0.0002175040
   15       -0.0000563610
   16        0.0006767820
   17       -0.0028410950
   18        0.0042526110
   19       -0.0002336340
   20       -0.0001060640
   21        0.0074137440
   22       -0.0002477550
   23       -0.0000344200
   24        0.0008841550
   25        0.0007935670
   26        0.0006808320
   27       -0.0014744000
   28        0.0001954060
   29        0.0002119160
   30        0.0001689860
   31       -0.0098389730
   32        0.0027662750
   33        0.0031436590
   34        0.0000021910
   35       -0.0005691400
   36       -0.0002859360
   37        0.0003094310
   38        0.0001276200
   39        0.0000829600
   40        0.0002119150
 Sym= A
 Ene=          2.00000000
 Spin= Alpha
 Occup=        2.00000200
    1        0.0006767140
    2       -0.0028411900
    3        0.0042524830
    4       -0.0002548940
    5       -0.0000249100
    6       -0.0074137570
    7       -0.0002316560
    8       -0.0000943270
    9       -0.0008842110
   10        0.0009118740
   11        0.0005625150
   12       -0.0014743890
   13       -0.0000414610
   14       -0.0002677690
   15        0.0000408430
   16        1.0108909600
   17       -0.0202117270
   18       -0.0494289380
   19        0.0028484530
   20        0.0015073120
   21       -0.0023890510
   22        0.0006308290
   23        0.0004497670
   24        0.0015194320
   25        0.0008221290
   26        0.0007319460
   27       -0.0015540740
   28        0.0002060020
   29        0.0002172420
   30        0.0000600110
   31       -0.0002860310
   32        0.0003093910
   33        0.0001522700
   34       -0.0000079570
   35       -0.0002119200
   36       -0.0098384380
   37        0.0027664510
   38        0.0027232580
   39        0.0015698910
   40        0.0005691230
 Sym= A
 Ene=          3.00000000
 Spin= Alpha
 Occup=        2.00000000
    1       -0.0738212180
    2        0.2547826900
    3        0.3009469060
    4       -0.1944069580
    5        0.5484557990
    6       -0.0987272910
    7       -0.1270266680
    8        0.3967154770
    9       -0.0722265080
   10       -0.0078905800
   11        0.0077629670
   12        0.0001276120
   13        0.0198435510
   14       -0.0048052460
   15        0.0056660260
   16        0.0061856900
   17       -0.0151487560
   18       -0.0256383970
   19        0.0108195360
   20       -0.0287958510
   21        0.0325916220
   22        0.0131968950
   23       -0.0469440580
   24        0.0323844560
   25       -0.0014514470
   26       -0.0011797270
   27        0.0026311740
   28       -0.0008656210
   29        0.0048923670
   30       -0.0112444610
   31       -0.0324966130
   32       -0.0478198950
   33       -0.0045302480
   34        0.0177040660
   35       -0.0031345170
   36       -0.0022998450
   37        0.0092231600
   38        0.0001640180
   39       -0.0016008360
   40        0.0007421170
 Sym= A
 Ene=          4.00000000
 Spin= Alpha
 Occup=        2.00000100
    1       -0.1057397860
    2        0.3690724320
    3        0.4242122340
    4       -0.2772232150
    5       -0.3832038350
    6       -0.1313246650
    7       -0.1859749940
    8       -0.2776974990
    9       -0.0990834600
   10       -0.0103936810
   11        0.0092720180
   12        0.0011216610
   13       -0.0139399920
   14       -0.0082477360
   15       -0.0045689220
   16        0.0110063500
   17       -0.0259598180
   18       -0.0527481660
   19        0.0054215070
   20        0.0131658720
   21        0.0419266120
   22        0.0066910490
   23        0.0210390390
   24        0.0441811790
   25       -0.0019372840
   26       -0.0012049180
   27        0.0031422040
   28        0.0006216720
   29        0.0089771960
   30        0.0096085210
   31       -0.0426664280
   32       -0.0683437360
   33       -0.0065148510
   34       -0.0125786950
   35       -0.0040491950
   36        0.0225631460
   37        0.0288409830
   38       -0.0006143610
   39        0.0000764240
   40        0.0022571690
 Sym= A
 Ene=          5.00000000
 Spin= Alpha
 Occup=        1.99999700
    1        0.0061960600
    2       -0.0151733540
    3       -0.0256910610
    4       -0.0050073720
    5        0.0303288190
    6       -0.0326376000
    7       -0.0120216060
    8        0.0472311680
    9       -0.0324307060
   10       -0.0020337330
   11       -0.0006000410
   12        0.0026337740
   13        0.0002958950
   14        0.0013732080
   15       -0.0121811500
   16       -0.0739269470
   17        0.2551515350
   18        0.3013694640
   19        0.1054436520
   20       -0.5719841260
   21        0.0988623760
   22        0.0880548420
   23       -0.4069293210
   24        0.0723275410
   25        0.0108901440
   26       -0.0110183490
   27        0.0001282060
   28       -0.0177507500
   29        0.0013379520
   30        0.0073095620
   31       -0.0022716040
   32        0.0092543540
   33       -0.0006597000
   34        0.0014676970
   35       -0.0007442560
   36       -0.0325336170
   37       -0.0478856180
   38        0.0049160940
   39       -0.0175892220
   40        0.0031384730
 Sym= A
 Ene=          6.00000000
 Spin= Alpha
 Occup=        2.00000200
    1        0.0110010860
    2       -0.0259483400
    3       -0.0527275310
    4        0.0112926000
    5       -0.0087119420
    6       -0.0418977240
    7        0.0163308850
    8       -0.0149151780
    9       -0.0441507220
   10       -0.0012850090
   11       -0.0018540240
   12        0.0031390340
   13       -0.0006771160
   14       -0.0125804250
   15        0.0038449440
   16       -0.1056676820
   17        0.3688203190
   18        0.4239143420
   19       -0.4317860370
   20        0.1938219410
   21        0.1312310940
   22       -0.2999939300
   23        0.1479101690
   24        0.0990142000
   25       -0.0159429250
   26        0.0148219120
   27        0.0011210110
   28       -0.0028451560
   29        0.0094263770
   30        0.0001602410
   31        0.0225701340
   32        0.0288345640
   33       -0.0004931840
   34       -0.0003753370
   35       -0.0022563620
   36       -0.0426313970
   37       -0.0682952440
   38       -0.0119369390
   39        0.0076527070
   40        0.0040460650
 Sym= A
 Ene=          7.00000000
 Spin= Alpha
 Occup=        1.99999900
    1       -0.0321023550
    2        0.1368775480
    3        0.0823538180
    4        0.0236530760
    5       -0.0000945180
    6        0.3944784610
    7        0.0369573930
    8        0.0021617160
    9        0.2468391080
   10       -0.0191588290
   11       -0.0179035530
   12        0.0370623850
   13        0.0007639320
   14        0.0180334120
   15        0.0016374440
   16       -0.0321010860
   17        0.1368718570
   18        0.0823524000
   19        0.0204146790
   20        0.0118965160
   21       -0.3944796630
   22        0.0330730120
   23        0.0165991420
   24       -0.2468375980
   25       -0.0182727330
   26       -0.0187903950
   27        0.0370631320
   28       -0.0010109870
   29       -0.0164365850
   30       -0.0075983910
   31       -0.0238942620
   32       -0.0423837970
   33       -0.0009842170
   34       -0.0002845140
   35        0.0102352090
   36       -0.0239102170
   37       -0.0423912440
   38       -0.0009938360
   39       -0.0002448860
   40       -0.0102346750
 Sym= A
 Ene=          8.00000000
 Spin= Alpha
 Occup=        1.99999800
    1       -0.0571261280
    2        0.2210869600
    3        0.1455880390
    4        0.4416131120
    5       -0.0022109680
    6       -0.0967615700
    7        0.2572902640
    8       -0.0002962620
    9       -0.0293822810
   10        0.0276689780
   11       -0.0115885800
   12       -0.0160803980
   13        0.0007018150
   14       -0.0011107260
   15        0.0003400480
   16        0.0060204770
   17       -0.0145159190
   18       -0.0222031980
   19       -0.0186583290
   20        0.0008120850
   21        0.0446367650
   22       -0.0280641530
   23        0.0034394330
   24        0.0456727760
   25       -0.0000480620
   26       -0.0005926990
   27        0.0006407610
   28       -0.0006997380
   29       -0.0085717540
   30        0.0001674810
   31        0.3137492630
   32        0.1208694420
   33       -0.0327078220
   34        0.0004747730
   35        0.0093693600
   36       -0.0111750830
   37       -0.0118873690
   38       -0.0000913440
   39        0.0004098580
   40        0.0014180630
 Sym= A
 Ene=          9.00000000
 Spin= Alpha
 Occup=        2.00000100
    1        0.0060182340
    2       -0.0145081220
    3       -0.0221930110
    4       -0.0157755920
    5       -0.0100278930
    6       -0.0446171460
    7       -0.0225974370
    8       -0.0170068810
    9       -0.0456617540
   10       -0.0007117310
   11        0.0000686680
   12        0.0006430620
   13        0.0006227580
   14        0.0073406280
   15        0.0044313710
   16       -0.0571266430
   17        0.2210854980
   18        0.1455826100
   19        0.3813467560
   20        0.2227287390
   21        0.0967396490
   22        0.2226765030
   23        0.1289077350
   24        0.0293680180
   25        0.0183798090
   26       -0.0023012060
   27       -0.0160786030
   28        0.0192783210
   29        0.0007924330
   30        0.0008492900
   31       -0.0111897220
   32       -0.0118962330
   33        0.0001266950
   34       -0.0004005660
   35       -0.0014180260
   36        0.3137494970
   37        0.1208697740
   38       -0.0280885660
   39       -0.0167649740
   40       -0.0093699310
 Sym= A
 Ene=         10.00000000
 Spin= Alpha
 Occup=        0.00000000
    1       -0.0611401350
    2        0.2746769690
    3        0.1108809840
    4       -0.0124917340
    5        0.0016906920
    6        0.6067265760
    7        0.0270257100
    8        0.0062068330
    9        0.3639819470
   10       -0.0069772120
   11       -0.0015235050
   12        0.0540455610
   13        0.0007457500
   14        0.0244195820
   15        0.0028458820
   16        0.0611605150
   17       -0.2747257820
   18       -0.1111395880
   19        0.0096094250
   20        0.0074285800
   21        0.6066029250
   22       -0.0264263350
   23       -0.0079236280
   24        0.3640930390
   25        0.0049783500
   26        0.0034147950
   27       -0.0538654590
   28        0.0030483290
   29        0.0225058000
   30        0.0097814080
   31        0.0150217430
   32       -0.0113392530
   33       -0.0074692200
   34       -0.0000727910
   35        0.0038640940
   36       -0.0149577700
   37        0.0114779430
   38        0.0061386060
   39        0.0033662270
   40        0.0036110060
 Sym= A
 Ene=         11.00000000
 Spin= Alpha
 Occup=        0.00000000
    1        0.0811256510
    2       -0.3761481130
    3       -0.3118304780
    4       -0.5729761030
    5        0.0019928340
    6        0.1838913150
    7       -0.4452757750
    8       -0.0000053390
    9        0.1187760980
   10       -0.0718265510
   11        0.0150124920
   12        0.0200890840
   13       -0.0008558760
   14        0.0187886240
   15        0.0002293790
   16        0.0046372740
   17       -0.0151069510
   18       -0.0434064900
   19        0.0477211070
   20        0.0025037670
   21        0.0021695920
   22        0.0327234720
   23       -0.0048031700
   24       -0.0037004110
   25        0.0072610150
   26        0.0035556100
   27       -0.0056216070
   28       -0.0004295660
   29       -0.0000329260
   30       -0.0002337820
   31        1.0198372800
   32        0.3997410270
   33       -0.0649711650
   34        0.0010402210
   35        0.0209040160
   36       -0.0237994160
   37        0.0098818550
   38        0.0001783720
   39        0.0004480090
   40       -0.0016150590
 Sym= A
 Ene=         12.00000000
 Spin= Alpha
 Occup=        0.00000000
    1        0.0046572930
    2       -0.0151048580
    3       -0.0437189240
    4        0.0427989900
    5        0.0217254290
    6       -0.0022760480
    7        0.0255251350
    8        0.0205755190
    9        0.0037985850
   10        0.0061215260
   11        0.0048897140
   12       -0.0057370070
   13        0.0020849240
   14        0.0000445680
   15       -0.0002484380
   16        0.0810306300
   17       -0.3755951870
   18       -0.3111176970
   19       -0.4946177520
   20       -0.2877528810
   21       -0.1837216510
   22       -0.3856299080
   23       -0.2228885910
   24       -0.1187641000
   25       -0.0511453620
   26       -0.0062597650
   27        0.0203478240
   28       -0.0432560690
   29       -0.0166864000
   30       -0.0093330260
   31       -0.0237105010
   32        0.0102504550
   33        0.0003987000
   34       -0.0002966700
   35        0.0017195150
   36        1.0206417300
   37        0.3983324200
   38       -0.0546526880
   39       -0.0324933800
   40       -0.0205861200
 Sym= A
 Ene=         13.00000000
 Spin= Alpha
 Occup=       -0.00000000
    1       -0.0424302330
    2       -0.4704970200
    3        1.4132771800
    4       -0.0781556670
    5       -0.7783906610
    6       -0.1750486010
    7        0.2028091020
    8        0.8968148210
    9        0.7089819260
   10       -0.2760981830
   11       -0.2704791790
   12        0.1026051940
   13        0.0033997830
   14        0.1495303160
   15       -0.4361167740
   16        0.0468222700
   17        0.0398988500
   18       -0.8067297980
   19        0.0006273110
   20       -0.0160524430
   21        0.0474471990
   22       -0.0509283960
   23       -0.0861564960
   24        0.5612653840
   25        0.1298692710
   26        0.1351679030
   27       -0.0381700010
   28       -0.0053146450
   29        0.0282853400
   30       -0.0376839100
   31       -0.0386033000
   32       -0.1747555900
   33       -0.0232420460
   34       -0.0233141040
   35       -0.0220583820
   36        0.0470584630
   37       -0.0700991540
   38        0.0122185240
   39        0.0041142820
   40       -0.0093396190
 Sym= A
 Ene=         14.00000000
 Spin= Alpha
 Occup=        0.00000000
    1       -0.0931247470
    2       -0.2223107400
    3        1.5777496700
    4       -0.6608581980
    5        0.0248187110
    6       -0.2658240130
    7        1.3003801000
    8       -0.0192048510
    9        0.5755970740
   10       -0.2624031730
   11       -0.4195468130
   12        0.1210951320
   13       -0.0778852600
   14       -0.5858775430
   15        0.1386351160
   16        0.0413541740
   17        0.0059092710
   18       -0.6835297230
   19       -0.0266578730
   20        0.0019892140
   21        0.0633271750
   22       -0.1026678380
   23       -0.0294504650
   24        0.4506510430
   25        0.1158959320
   26        0.1143643100
   27       -0.0450921490
   28        0.0008680430
   29       -0.0409901090
   30        0.0176256540
   31       -0.5630219500
   32       -0.4936449020
   33        0.0568240820
   34        0.0139318450
   35        0.0448033220
   36        0.0405930370
   37       -0.0236395170
   38        0.0073696730
   39        0.0049087380
   40        0.0015257570
 Sym= A
 Ene=         15.00000000
 Spin= Alpha
 Occup=       -0.00000000
    1       -0.0609144930
    2       -1.1223237800
    3        2.9708086400
    4       -0.1781048280
    5        0.1607004200
    6       -0.3601029750
    7        0.6431894400
    8       -0.1597251540
    9        1.3091301300
   10       -0.2220527240
   11       -0.3591888220
   12       -0.1345969660
   13        0.0129213090
   14        0.6332506160
   15        0.3428678470
   16        0.0893012060
   17        0.1233607700
   18       -1.6530220700
   19        0.0154506700
   20        0.0186897580
   21        0.0519792760
   22       -0.2898359680
   23       -0.0860503090
   24        1.0189702900
   25        0.2192820480
   26        0.2526914850
   27        0.0052561660
   28       -0.0370168520
   29        0.1090002090
   30        0.0412368330
   31       -0.2288832600
   32       -0.5159862700
   33       -0.0119245020
   34        0.0088613260
   35       -0.1107213780
   36        0.1574542230
   37       -0.0218015800
   38        0.0178246160
   39        0.0069538320
   40       -0.0434846830
 Sym= A
 Ene=         16.00000000
 Spin= Alpha
 Occup=       -0.00000000
    1       -0.0436917240
    2        0.0265365570
    3        0.3127868520
    4       -0.3214816530
    5       -0.0386492630
    6        0.5695856430
    7        0.4712825260
    8        0.0589913100
    9       -0.8382587440
   10       -0.4710963310
   11       -0.4201455720
   12        0.3994466200
   13        0.0119559300
   14        0.4728542480
   15        0.1113812990
   16        0.0043379640
   17        0.1123848410
   18       -0.0222657080
   19       -0.0133257230
   20       -0.0016721570
   21       -0.0181726660
   22       -0.2567595800
   23       -0.0929321750
   24       -0.1456402080
   25        0.0536480790
   26        0.0610612930
   27       -0.0603174080
   28       -0.0104116920
   29        0.0581516560
   30        0.0150868620
   31        0.0751095950
   32       -0.2701578250
   33       -0.1414008440
   34        0.0005444050
   35        0.0104964130
   36        0.1168381400
   37        0.1411481360
   38        0.0053318460
   39        0.0023318430
   40       -0.0082636820
 Sym= A
 Ene=         17.00000000
 Spin= Alpha
 Occup=       -0.00000000
    1        0.0126602640
    2       -0.3777179770
    3        0.4549242250
    4       -0.0898884690
    5       -0.0802987230
    6        0.3274405770
    7        0.0892662540
    8        0.0994596700
    9       -0.5705280260
   10       -0.6812523820
   11        0.8549056900
   12       -0.4435142120
   13       -0.1377421110
   14       -0.0941894040
   15        0.0787428590
   16       -0.0217306050
   17        0.0595317340
   18        0.2487873640
   19       -0.0184777710
   20       -0.0021341380
   21       -0.0866793510
   22        0.0274334660
   23       -0.0482767650
   24       -0.1925613770
   25       -0.0298541430
   26       -0.0711353340
   27        0.0604984180
   28        0.0034500530
   29       -0.0252043460
   30        0.0118241080
   31        0.2525432010
   32       -0.3397726000
   33       -0.0912291050
   34        0.0184329140
   35        0.0552312950
   36        0.0043626650
   37        0.0500575630
   38       -0.0058897240
   39        0.0023908240
   40       -0.0011830420
 Sym= A
 Ene=         18.00000000
 Spin= Alpha
 Occup=       -0.00000000
    1       -0.0019395750
    2       -0.9924789040
    3        2.2136201600
    4        0.0717367980
    5        0.0715952660
    6        0.3673262550
    7        1.0455644000
    8       -0.0967998310
    9       -0.6060966490
   10        0.9187894260
   11       -0.5201552390
   12       -0.4861890630
   13        0.0558300460
   14       -0.4152153000
   15       -0.2153451020
   16        0.0071186390
   17        0.1715187400
   18       -0.3131351450
   19       -0.0031072190
   20       -0.0016739950
   21       -0.1011979750
   22       -0.1208722220
   23        0.0336220820
   24        0.1515163290
   25        0.0333418090
   26        0.0716788700
   27        0.0240969890
   28       -0.0130030380
   29        0.0103009020
   30       -0.0316137230
   31       -1.1684933000
   32       -0.8410292350
   33        0.3193353720
   34       -0.0122930980
   35       -0.0869893510
   36        0.0517890770
   37        0.0765249980
   38        0.0033648360
   39       -0.0074622070
   40       -0.0092621520
 Sym= A
 Ene=         19.00000000
 Spin= Alpha
 Occup=        0.00000000
    1       -0.2320895730
    2       -0.1454279070
    3        2.2408654200
    4       -0.1026287150
    5        0.1125945480
    6       -0.0464232590
    7       -0.0212631090
    8       -0.1457136720
    9        0.3413938690
   10       -1.1513369700
   11       -0.7221448420
   12       -0.7055345950
   13        0.8494448800
   14       -0.0163446760
   15       -0.1927084120
   16        0.0210520650
   17       -0.0115913990
   18       -0.4529633630
   19       -0.0107120620
   20        0.0000654390
   21        0.0156570180
   22        0.0703942860
   23        0.0818026690
   24        0.2561012350
   25        0.0332761660
   26        0.0191081720
   27        0.1175712600
   28       -0.0238765320
   29       -0.0169204190
   30       -0.0288194360
   31        0.2674171920
   32       -0.2696278340
   33       -0.2271649800
   34       -0.1116017040
   35        0.0624604600
   36        0.0096081840
   37       -0.0820907620
   38       -0.0029755280
   39        0.0007410240
   40        0.0146518230
 Sym= A
 Ene=         20.00000000
 Spin= Alpha
 Occup=        0.00000000
    1       -0.3787197690
    2       -0.0756912560
    3        3.3441375900
    4       -0.0279672970
    5       -0.0423713190
    6       -0.0270144950
    7       -0.0494134400
    8        0.0614554040
    9        0.2395009500
   10       -1.3495334400
   11       -1.4490865500
   12       -1.3583733900
   13       -0.4929049270
   14       -0.0050896800
   15        0.1373212090
   16        0.0190604490
   17       -0.0134788040
   18       -0.5190250300
   19       -0.0015036710
   20        0.0005506150
   21       -0.0006418820
   22        0.0454095240
   23       -0.0456971080
   24        0.1612994210
   25       -0.0127102510
   26       -0.0107630460
   27        0.2485668900
   28        0.0012148830
   29       -0.0151890610
   30        0.0096118960
   31        0.1992260850
   32       -0.4212284840
   33       -0.2921822090
   34        0.0654385830
   35        0.0624774110
   36        0.0432523250
   37       -0.0254657480
   38       -0.0081568560
   39       -0.0038328760
   40        0.0221848520
 Sym= A
 Ene=         21.00000000
 Spin= Alpha
 Occup=       -0.00000000
    1       -0.0232398050
    2       -0.1880466680
    3        0.5941067890
    4       -0.0863057950
    5        0.4936323780
    6       -0.0842661420
    7       -0.0234864010
    8       -0.6470491210
    9        0.4523382460
   10       -0.4432984850
   11       -0.0412020890
   12        0.2181781700
   13       -0.3108235290
   14        0.1636875760
   15       -0.7944906750
   16        0.0262643700
   17        0.0065231830
   18       -0.4181362510
   19       -0.0005957700
   20       -0.0050200340
   21        0.0444103570
   22        0.0294647980
   23        0.3308421640
   24        0.3475235670
   25        0.0949071120
   26        0.0773146130
   27       -0.0583608290
   28        0.0221626560
   29        0.0191524190
   30       -0.1160861550
   31        0.2056727600
   32       -0.0163901010
   33       -0.0830799500
   34        0.0257882670
   35        0.0101282620
   36       -0.0684502730
   37       -0.0471397720
   38        0.0160427730
   39       -0.0015916960
   40        0.0005818770
 Sym= A
 Ene=         22.00000000
 Spin= Alpha
 Occup=        0.00000000
    1        0.0320097360
    2       -0.8537185100
    3        1.5317560800
    4        0.4766340670
    5        0.0305029930
    6       -0.0036738160
    7       -0.7283798300
    8       -0.0257513350
    9        1.0154855100
   10       -0.5088642970
   11       -0.2766014550
   12        0.9642038410
   13       -0.0326730340
   14       -0.3767985470
   15        0.1861923480
   16        0.0869387300
   17        0.1084484600
   18       -1.3550217100
   19        0.0145271050
   20        0.0094979010
   21        0.1042294250
   22        0.2871750770
   23        0.0080325220
   24        1.0654389700
   25        0.3037529730
   26        0.2884703540
   27       -0.2182866560
   28        0.0101930140
   29       -0.0502565530
   30        0.0323578280
   31        0.2006521400
   32        0.0986952160
   33        0.0488143990
   34        0.0098438200
   35        0.0426074100
   36       -0.0634513250
   37       -0.1193101480
   38        0.0291611730
   39        0.0211981320
   40       -0.0216056690
 Sym= A
 Ene=         23.00000000
 Spin= Alpha
 Occup=        0.00000000
    1        0.0459584470
    2        0.0393160260
    3       -0.7925746250
    4       -0.0070103570
    5        0.0161244800
    6       -0.0461555640
    7       -0.0780966800
    8        0.0506287080
    9       -0.5563345930
   10        0.1262519040
   11        0.1352640020
   12       -0.0386163470
   13       -0.0000658890
   14       -0.0046222520
   15       -0.0471890760
   16       -0.0407465090
   17       -0.4639457670
   18        1.3802871900
   19       -0.4400780640
   20        0.6477526890
   21        0.1726772960
   22        0.5922083090
   23       -0.6960878190
   24       -0.7038500130
   25       -0.2652622130
   26       -0.2682169120
   27        0.1002047390
   28       -0.0067945780
   29        0.0901666520
   30       -0.4530751490
   31        0.0425434630
   32       -0.0721233000
   33        0.0139058180
   34        0.0024907000
   35        0.0095582630
   36       -0.0273674270
   37       -0.1591796840
   38       -0.0297336920
   39        0.0096307590
   40        0.0208383300
 Sym= A
 Ene=         24.00000000
 Spin= Alpha
 Occup=       -0.00000000
    1        0.0431571240
    2        0.0065932370
    3       -0.7142647570
    4       -0.0193342240
    5       -0.0143429940
    6       -0.0659945620
    7       -0.1003902020
    8       -0.0241728520
    9       -0.4739180090
   10        0.1222597780
   11        0.1191845480
   12       -0.0478712190
   13        0.0003912880
   14        0.0279072200
   15        0.0348201050
   16       -0.0946260840
   17       -0.2408494680
   18        1.6287323200
   19       -0.5605588710
   20       -0.3382317510
   21        0.2737347130
   22        1.1137629400
   23        0.6497716250
   24       -0.6095526760
   25       -0.3708389520
   26       -0.3328652370
   27        0.1239591150
   28        0.1183966010
   29        0.4515010480
   30        0.4060203430
   31        0.0390101960
   32       -0.0272061280
   33        0.0104716810
   34       -0.0006457290
   35       -0.0017754720
   36       -0.5597464400
   37       -0.4945749470
   38        0.0525960820
   39        0.0135643850
   40       -0.0430855960
 Sym= A
 Ene=         25.00000000
 Spin= Alpha
 Occup=        0.00000000
    1        0.0894627010
    2        0.1244438620
    3       -1.6562716300
    4        0.0240390690
    5       -0.0089159680
    6       -0.0518269200
    7       -0.2989809920
    8       -0.0696231450
    9       -1.0208988500
   10        0.1997936610
   11        0.2735254440
   12        0.0051870730
   13        0.0017076880
   14       -0.1177480440
   15       -0.0191495230
   16       -0.0618137760
   17       -1.1238368500
   18        2.9866001200
   19       -0.0799178250
   20       -0.2251983230
   21        0.3600202860
   22        0.4922948340
   23        0.4598407920
   24       -1.3058788400
   25       -0.2494129520
   26       -0.3369825780
   27       -0.1350250470
   28        0.0624199800
   29       -0.7174969180
   30       -0.0200104850
   31        0.1589601830
   32       -0.0210172470
   33        0.0204844230