[Molden Format]
 Molden2AIM, Version 5.0.2 (10/09/2020)           Time: Tue Apr  6 00:21:31 2021

[Atoms] AU
  O      1    8        0.0000000000        0.0000000000        0.0000000000
  O      2    8        0.0000000000        0.0000000000        2.7620617201
  H      3    1        1.7632934844        0.0000000000       -0.4771921162
  H      4    1       -0.6030818860        1.6569538668        3.2392538382
[GTO]
    1    0
 S    6  1.0
    0.5484672000D+04    0.1831100116D-02
    0.8252350000D+03    0.1395010088D-01
    0.1880470000D+03    0.6844510432D-01
    0.5296450000D+02    0.2327140147D+00
    0.1689757000D+02    0.4701930297D+00
    0.5799635000D+01    0.3585210226D+00
 S    3  1.0
    0.1553962000D+02   -0.1107766479D+00
    0.3599934000D+01   -0.1480255295D+00
    0.1013762000D+01    0.1130766406D+01
 S    1  1.0
    0.2700058000D+00    0.1000000000D+01
 P    3  1.0
    0.1553962000D+02    0.7087426029D-01
    0.3599934000D+01    0.3397528096D+00
    0.1013762000D+01    0.7271585926D+00
 P    1  1.0
    0.2700058000D+00    0.1000000000D+01
 D    1  1.0
    0.8000000000D+00    0.1000000000D+01

    2    0
 S    6  1.0
    0.5484672000D+04    0.1831100116D-02
    0.8252350000D+03    0.1395010088D-01
    0.1880470000D+03    0.6844510432D-01
    0.5296450000D+02    0.2327140147D+00
    0.1689757000D+02    0.4701930297D+00
    0.5799635000D+01    0.3585210226D+00
 S    3  1.0
    0.1553962000D+02   -0.1107766479D+00
    0.3599934000D+01   -0.1480255295D+00
    0.1013762000D+01    0.1130766406D+01
 S    1  1.0
    0.2700058000D+00    0.1000000000D+01
 P    3  1.0
    0.1553962000D+02    0.7087426029D-01
    0.3599934000D+01    0.3397528096D+00
    0.1013762000D+01    0.7271585926D+00
 P    1  1.0
    0.2700058000D+00    0.1000000000D+01
 D    1  1.0
    0.8000000000D+00    0.1000000000D+01

    3    0
 S    3  1.0
    0.1873114000D+02    0.3349460926D-01
    0.2825394000D+01    0.2347270649D+00
    0.6401217000D+00    0.8137572250D+00
 S    1  1.0
    0.1612778000D+00    0.1000000000D+01
 P    1  1.0
    0.1100000000D+01    0.1000000000D+01

    4    0
 S    3  1.0
    0.1873114000D+02    0.3349460926D-01
    0.2825394000D+01    0.2347270649D+00
    0.6401217000D+00    0.8137572250D+00
 S    1  1.0
    0.1612778000D+00    0.1000000000D+01
 P    1  1.0
    0.1100000000D+01    0.1000000000D+01

[MO]
 Sym= A
 Ene=          1.00000000
 Spin= Alpha
 Occup=        1.99999800
    1        1.0108052200
    2       -0.0198555840
    3       -0.0491628760
    4        0.0029817950
    5        0.0002693050
    6        0.0024098680
    7        0.0010704230
    8       -0.0001786380
    9       -0.0015759210
   10        0.0010174420
   11        0.0005238430
   12       -0.0015412840
   13        0.0000571740
   14       -0.0000932630
   15       -0.0001109800
   16        0.0007102650
   17       -0.0028002940
   18        0.0037283190
   19        0.0000223540
   20       -0.0002240080
   21        0.0074163640
   22       -0.0000646120
   23       -0.0003635840
   24        0.0008359650
   25        0.0005518980
   26        0.0008900340
   27       -0.0014419320
   28       -0.0001247290
   29       -0.0002020340
   30        0.0003326500
   31       -0.0099293260
   32        0.0026163990
   33        0.0031396920
   34        0.0000159990
   35       -0.0005185460
   36       -0.0001133930
   37        0.0008580580
   38       -0.0000455750
   39        0.0001072000
   40        0.0001844430
 Sym= A
 Ene=          2.00000000
 Spin= Alpha
 Occup=        2.00000100
    1        0.0007104980
    2       -0.0028004590
    3        0.0037281480
    4       -0.0002189400
    5       -0.0000553670
    6       -0.0074163420
    7       -0.0003192750
    8       -0.0001853200
    9       -0.0008359960
   10        0.0009198770
   11        0.0005220400
   12       -0.0014419170
   13        0.0000292440
   14       -0.0003816200
   15        0.0000769680
   16        1.0108050600
   17       -0.0198550720
   18       -0.0491622320
   19       -0.0007672950
   20        0.0028939600
   21       -0.0024097150
   22       -0.0005340890
   23        0.0009449390
   24        0.0015760150
   25        0.0005496750
   26        0.0009916080
   27       -0.0015412830
   28       -0.0001390900
   29        0.0000726580
   30        0.0001250250
   31       -0.0001135720
   32        0.0008580090
   33        0.0001162440
   34       -0.0000058220
   35       -0.0001844480
   36       -0.0099293580
   37        0.0026163220
   38       -0.0010580770
   39        0.0029557920
   40        0.0005185490
 Sym= A
 Ene=          3.00000000
 Spin= Alpha
 Occup=        2.00000000
    1       -0.1209718900
    2        0.4166589640
    3        0.4888707510
    4       -0.3261521620
    5        0.2113085730
    6       -0.1634748440
    7       -0.2205589040
    8        0.1556239880
    9       -0.1178957530
   10       -0.0123776830
   11        0.0120692510
   12        0.0003084330
   13        0.0055362270
   14       -0.0088630680
   15        0.0028662070
   16        0.0095334150
   17       -0.0251223220
   18       -0.0325053410
   19        0.0188624300
   20       -0.0097526610
   21        0.0548868050
   22        0.0282314330
   23       -0.0166306430
   24        0.0554376580
   25       -0.0018996390
   26       -0.0021839010
   27        0.0040835370
   28        0.0014661790
   29        0.0070973130
   30       -0.0038066240
   31       -0.0524437040
   32       -0.0684999790
   33       -0.0071196830
   34        0.0065109060
   35       -0.0045054660
   36       -0.0123044620
   37        0.0043652580
   38        0.0007067350
   39        0.0000416070
   40        0.0015185710
 Sym= A
 Ene=          4.00000000
 Spin= Alpha
 Occup=        2.00000000
    1       -0.0422536430
    2        0.1492124580
    3        0.1665169180
    4       -0.1069906960
    5       -0.6312634650
    6       -0.0440401790
    7       -0.0695665820
    8       -0.4605656510
    9       -0.0360943030
   10       -0.0024843790
   11        0.0014507410
   12        0.0010336390
   13       -0.0215081510
   14       -0.0020382550
   15       -0.0079635680
   16        0.0060518260
   17       -0.0125822660
   18       -0.0367862210
   19        0.0108473140
   20        0.0201035010
   21        0.0137309910
   22        0.0168763160
   23        0.0319704590
   24        0.0155827540
   25       -0.0019628590
   26        0.0007431200
   27        0.0012197380
   28       -0.0010756470
   29        0.0014651210
   30        0.0158483400
   31       -0.0168811900
   32       -0.0303524200
   33       -0.0022232150
   34       -0.0198406490
   35       -0.0009012170
   36        0.0260411210
   37        0.0285929040
   38        0.0009346770
   39       -0.0000661700
   40        0.0009501180
 Sym= A
 Ene=          5.00000000
 Spin= Alpha
 Occup=        1.99999900
    1        0.0095397480
    2       -0.0251354670
    3       -0.0325413260
    4       -0.0156118150
    5        0.0144136000
    6       -0.0549007280
    7       -0.0252668330
    8        0.0208722260
    9       -0.0554546550
   10       -0.0029663950
   11       -0.0011187720
   12        0.0040851640
   13        0.0010180180
   14        0.0059900570
   15       -0.0053729700
   16       -0.1210168840
   17        0.4168164620
   18        0.4890421480
   19        0.3095632970
   20       -0.2345021360
   21        0.1635207840
   22        0.2212688690
   23       -0.1542389250
   24        0.1179314860
   25        0.0061404260
   26       -0.0064493100
   27        0.0003088840
   28        0.0132986340
   29       -0.0057170280
   30        0.0073524450
   31       -0.0122847370
   32        0.0043908230
   33       -0.0002023710
   34        0.0006796110
   35       -0.0015197330
   36       -0.0524466780
   37       -0.0685251800
   38        0.0085355620
   39       -0.0044737540
   40        0.0045059300
 Sym= A
 Ene=          6.00000000
 Spin= Alpha
 Occup=        2.00000100
    1        0.0060415350
    2       -0.0125558650
    3       -0.0367505580
    4        0.0151936100
    5        0.0170344860
    6       -0.0136697410
    7        0.0242932140
    8        0.0267596580
    9       -0.0155222920
   10        0.0010280540
   11       -0.0022440980
   12        0.0012160440
   13        0.0001788410
   14       -0.0143974250
   15       -0.0067927470
   16       -0.0421297810
   17        0.1487819830
   18        0.1660218700
   19       -0.5568902050
   20       -0.3162523630
   21        0.0438677180
   22       -0.4092055880
   23       -0.2227651730
   24        0.0359736310
   25        0.0129576040
   26       -0.0139926900
   27        0.0010350860
   28       -0.0150273940
   29        0.0067916360
   30        0.0046317230
   31        0.0260503500
   32        0.0285869290
   33       -0.0003819310
   34        0.0008548950
   35       -0.0009484620
   36       -0.0168588730
   37       -0.0302952400
   38       -0.0178933050
   39       -0.0088681120
   40        0.0008975220
 Sym= A
 Ene=          7.00000000
 Spin= Alpha
 Occup=        2.00000200
    1       -0.0320914400
    2        0.1365974330
    3        0.0818517930
    4        0.0226462280
    5        0.0009769160
    6        0.3950579600
    7        0.0310225930
    8        0.0050831930
    9        0.2477421270
   10       -0.0203165850
   11       -0.0168013090
   12        0.0371178920
   13       -0.0002131670
   14        0.0144080150
   15        0.0033146120
   16       -0.0320897870
   17        0.1365911980
   18        0.0818458410
   19       -0.0068225210
   20        0.0216107770
   21       -0.3950592890
   22       -0.0058308270
   23        0.0308890050
   24       -0.2477422670
   25       -0.0170941340
   26       -0.0200240220
   27        0.0371181520
   28        0.0011417130
   29        0.0018135020
   30       -0.0146723330
   31       -0.0192596960
   32       -0.0439144970
   33       -0.0010838620
   34       -0.0003608790
   35        0.0094096270
   36       -0.0192638600
   37       -0.0439154570
   38        0.0000317810
   39       -0.0011415690
   40       -0.0094094900
 Sym= A
 Ene=          8.00000000
 Spin= Alpha
 Occup=        1.99999900
    1       -0.0590998980
    2        0.2283572930
    3        0.1529708010
    4        0.4433785590
    5        0.0035741550
    6       -0.0920236210
    7        0.2597211520
    8        0.0027067050
    9       -0.0299303720
   10        0.0261419090
   11       -0.0105248230
   12       -0.0156170860
   13        0.0014365640
   14       -0.0013901070
   15       -0.0005771740
   16        0.0075006860
   17       -0.0157794220
   18       -0.0372444360
   19       -0.0174981980
   20       -0.0055725310
   21        0.0406222800
   22       -0.0318290980
   23       -0.0064381880
   24        0.0429553140
   25        0.0007880610
   26       -0.0013675240
   27        0.0005794610
   28       -0.0005392400
   29       -0.0092197190
   30        0.0016179610
   31        0.3106351390
   32        0.1103592830
   33       -0.0333968900
   34        0.0004439840
   35        0.0081599100
   36        0.0087572160
   37        0.0044539270
   38       -0.0007585500
   39       -0.0004688060
   40        0.0013905580
 Sym= A
 Ene=          9.00000000
 Spin= Alpha
 Occup=        1.99999900
    1        0.0074997710
    2       -0.0157768120
    3       -0.0372491230
    4        0.0007756510
    5       -0.0183480700
    6       -0.0406155650
    7        0.0048557630
    8       -0.0321099960
    9       -0.0429493460
   10       -0.0008138060
   11        0.0002345010
   12        0.0005793030
   13       -0.0012135030
   14       -0.0046758440
   15        0.0081099020
   16       -0.0590995250
   17        0.2283543470
   18        0.1529648000
   19       -0.1483549510
   20        0.4178422950
   21        0.0920149300
   22       -0.0863379510
   23        0.2449699760
   24        0.0299252990
   25       -0.0070334040
   26        0.0226499070
   27       -0.0156165020
   28       -0.0125099250
   29        0.0000672290
   30        0.0015037860
   31        0.0087736620
   32        0.0044617380
   33       -0.0001825330
   34       -0.0008729150
   35       -0.0013900190
   36        0.3106360860
   37        0.1103588190
   38        0.0118366070
   39       -0.0312322230
   40       -0.0081601490
 Sym= A
 Ene=         10.00000000
 Spin= Alpha
 Occup=       -0.00000000
    1       -0.0608177690
    2        0.2765424130
    3        0.1013542570
    4       -0.0148044590
    5        0.0042294880
    6        0.6069763890
    7        0.0075307320
    8        0.0120865000
    9        0.3646426820
   10       -0.0082824280
   11        0.0006898400
   12        0.0560065050
   13       -0.0004430750
   14        0.0176397350
   15        0.0055955320
   16        0.0608415870
   17       -0.2766565220
   18       -0.1015157340
   19       -0.0089348580
   20        0.0124014850
   21        0.6069602240
   22       -0.0088053320
   23       -0.0113854180
   24        0.3646626460
   25        0.0000790630
   26        0.0073220280
   27       -0.0557869530
   28       -0.0029431080
   29       -0.0008685300
   30        0.0185235580
   31        0.0242121420
   32       -0.0065136260
   33       -0.0071458260
   34       -0.0000088600
   35        0.0049868130
   36       -0.0240446020
   37        0.0066298570
   38       -0.0022676520
   39        0.0065138170
   40        0.0047881650
 Sym= A
 Ene=         11.00000000
 Spin= Alpha
 Occup=       -0.00000000
    1        0.0812408670
    2       -0.3786083960
    3       -0.3053491850
    4       -0.5699733440
    5       -0.0028015160
    6        0.1758452570
    7       -0.4439859000
    8       -0.0019311050
    9        0.1202584250
   10       -0.0723683680
   11        0.0129029900
   12        0.0186606030
   13       -0.0012449690
   14        0.0195039700
   15        0.0007033080
   16        0.0032132830
   17       -0.0181348310
   18       -0.0271559870
   19        0.0415594360
   20        0.0105780190
   21        0.0010032060
   22        0.0422252990
   23        0.0048629200
   24        0.0007758370
   25        0.0047664180
   26        0.0028303150
   27       -0.0076192470
   28        0.0009566310
   29        0.0003163700
   30       -0.0003050650
   31        1.0328827900
   32        0.3856030740
   33       -0.0674846240
   34        0.0012893950
   35        0.0189998820
   36       -0.0169991000
   37        0.0010539080
   38       -0.0003717040
   39        0.0011859630
   40       -0.0003046550
 Sym= A
 Ene=         12.00000000
 Spin= Alpha
 Occup=       -0.00000000
    1        0.0032148240
    2       -0.0181022440
    3       -0.0272569320
    4       -0.0043006700
    5        0.0426635440
    6       -0.0010469820
    7       -0.0099470450
    8        0.0413723290
    9       -0.0007748550
   10        0.0025832250
   11        0.0051686730
   12       -0.0077420470
   13        0.0000141730
   14        0.0004200020
   15       -0.0002259250
   16        0.0811774400
   17       -0.3783453080
   18       -0.3048626640
   19        0.1920185170
   20       -0.5363383730
   21       -0.1757842810
   22        0.1503997960
   23       -0.4178531640
   24       -0.1202613810
   25        0.0034369560
   26       -0.0633443840
   27        0.0187533480
   28        0.0305433840
   29        0.0060313600
   30       -0.0187401150
   31       -0.0170466070
   32        0.0011682640
   33        0.0012781530
   34        0.0000598790
   35        0.0003017270
   36        1.0333209400
   37        0.3848420150
   38        0.0237640880
   39       -0.0626033440
   40       -0.0189383440
 Sym= A
 Ene=         13.00000000
 Spin= Alpha
 Occup=        0.00000000
    1       -0.0334540380
    2       -0.8258897330
    3        1.9879238100
    4        0.3369994540
    5       -0.6374606700
    6       -0.2225656070
    7       -0.4860399190
    8        0.7481629450
    9        1.1678534200
   10       -0.3946721090
   11       -0.3722551260
   12        0.2088392230
   13        0.0919476230
   14        0.2852334920
   15       -0.1862201760
   16        0.0723796670
   17        0.0631617210
   18       -1.2380811200
   19        0.0098944740
   20       -0.0081428410
   21        0.0728711130
   22        0.0231253920
   23       -0.0687209620
   24        0.9287145220
   25        0.2098906770
   26        0.2012701090
   27       -0.0730537950
   28       -0.0002672210
   29        0.0287426860
   30       -0.0045361110
   31        0.1895985040
   32       -0.0245225000
   33       -0.0357667150
   34       -0.0261979530
   35       -0.0387586160
   36        0.0594356050
   37       -0.1816490210
   38       -0.0053617830
   39        0.0210321880
   40       -0.0107294040
 Sym= A
 Ene=         14.00000000
 Spin= Alpha
 Occup=        0.00000000
    1        0.0335265200
    2       -0.4047133780
    3        0.3572575340
    4        0.3853897330
    5        0.4922643680
    6        0.0602960540
    7       -0.7133134880
    8       -0.5634362390
    9        0.2381439640
   10       -0.1550109520
   11        0.1636317340
   12       -0.0245850950
   13       -0.0228114870
   14        0.6482974970
   15        0.3142309440
   16        0.0151571180
   17        0.0435638750
   18       -0.2962450510
   19        0.0146844240
   20        0.0136503850
   21       -0.0082054110
   22       -0.0057661100
   23        0.0644569770
   24        0.2311851490
   25        0.0536554160
   26        0.0398981480
   27       -0.0044418270
   28        0.0011930840
   29        0.0633492930
   30        0.0315189930
   31        0.4069118970
   32        0.1252232750
   33       -0.0805794370
   34        0.0182131360
   35       -0.0574019050
   36       -0.0038485620
   37       -0.0404436930
   38        0.0027091470
   39        0.0067563200
   40       -0.0084479310
 Sym= A
 Ene=         15.00000000
 Spin= Alpha
 Occup=        0.00000000
    1       -0.0791267840
    2       -0.8386146630
    3        2.6588331200
    4       -0.2248472500
    5        0.0060973670
    6       -0.5337953220
    7        0.7818402790
    8        0.0440811730
    9        1.3459959300
   10       -0.0632330460
   11       -0.3749794360
   12       -0.2291391140
   13       -0.1248277870
   14       -0.3129204180
   15        0.6020570400
   16        0.0737570640
   17        0.0504259160
   18       -1.3642202700
   19       -0.0174876240
   20        0.0224883420
   21        0.0659940770
   22       -0.0426430310
   23       -0.1660012350
   24        0.9007139870
   25        0.1955298760
   26        0.1531918890
   27        0.0227470510
   28        0.0233271210
   29       -0.0045817330
   30        0.0796203790
   31       -0.5276626770
   32       -0.4730073010
   33        0.1043274420
   34        0.0314859720
   35       -0.0311847170
   36        0.1087389620
   37       -0.0933603880
   38       -0.0035465520
   39        0.0131080590
   40       -0.0351735940
 Sym= A
 Ene=         16.00000000
 Spin= Alpha
 Occup=        0.00000000
    1       -0.0788267580
    2       -0.2992405240
    3        1.3827234400
    4       -0.2461895660
    5       -0.1525921980
    6        0.3960207470
    7        0.4580170720
    8        0.2251183210
    9       -0.2284600420
   10       -0.5780266070
   11       -0.7378337530
   12        0.5086289350
   13       -0.0871639550
   14        0.1647543270
   15        0.4810681140
   16        0.0394967720
   17        0.1339403150
   18       -0.6291113850
   19       -0.0114222060
   20        0.0076736030
   21        0.0285066650
   22       -0.0619142790
   23       -0.2199402520
   24        0.3203536570
   25        0.1658746720
   26        0.1472115990
   27       -0.1001557890
   28        0.0100016060
   29        0.0261208880
   30        0.0683460010
   31       -0.0536886240
   32       -0.3346218470
   33       -0.0915658220
   34        0.0214113190
   35        0.0224787790
   36        0.1033956120
   37        0.0572332210
   38       -0.0022253980
   39        0.0166275170
   40       -0.0135009020
 Sym= A
 Ene=         17.00000000
 Spin= Alpha
 Occup=        0.00000000
    1        0.0305074460
    2       -0.1291092460
    3       -0.2446215400
    4        0.0600941770
    5       -0.3162767670
    6        0.4414876280
    7       -0.0533927450
    8        0.4013555830
    9       -1.0618289400
   10       -0.2528199010
   11        0.7957702660
   12       -0.6297837030
   13       -0.0632838660
   14       -0.1826376090
   15        0.2804555500
   16       -0.0503521640
   17        0.0328232070
   18        0.7511615650
   19       -0.0053240340
   20       -0.0091002500
   21       -0.1276196260
   22        0.1002241110
   23       -0.2051913900
   24       -0.5643365800
   25       -0.1210068110
   26       -0.1700451220
   27        0.1154607880
   28        0.0127770470
   29       -0.0296335850
   30        0.0360147690
   31        0.1235865240
   32       -0.2469289400
   33       -0.0284566720
   34        0.0108931840
   35        0.0437293650
   36        0.0941229560
   37        0.0424422570
   38        0.0056129250
   39       -0.0169161060
   40        0.0004317700
 Sym= A
 Ene=         18.00000000
 Spin= Alpha
 Occup=       -0.00000000
    1       -0.0422746300
    2       -0.5303466640
    3        1.5132285700
    4       -0.6320660120
    5        0.0735138660
    6       -0.0452214470
    7        1.1012078300
    8       -0.1211554410
    9        0.2816097520
   10       -0.4451520480
   11        0.1389430220
   12       -0.1379226030
   13        0.1034126250
   14        0.5439023460
   15       -0.3721995080
   16        0.0165889790
   17        0.0320036650
   18       -0.3581360180
   19       -0.0225473710
   20       -0.0101126060
   21        0.0009306800
   22       -0.2971704810
   23        0.1847348060
   24        0.3552978580
   25        0.0670845170
   26        0.0673396580
   27       -0.0321790080
   28       -0.0143686540
   29        0.0854208260
   30       -0.0451925780
   31       -0.1257696770
   32       -0.5642496370
   33       -0.1007669640
   34       -0.0220407060
   35       -0.0424761080
   36       -0.0797816340
   37       -0.0911650670
   38        0.0026066340
   39        0.0119109100
   40        0.0049103970
 Sym= A
 Ene=         19.00000000
 Spin= Alpha
 Occup=        0.00000000
    1       -0.2664238770
    2        0.1440246130
    3        1.9249980000
    4       -0.1148714200
    5        0.0217314300
    6       -0.0645909020
    7       -0.0774953290
    8       -0.0101559490
    9        0.1768810760
   10       -1.1360391200
   11       -0.8382981870
   12       -0.9188620290
   13        0.8107406700
   14        0.0057981490
   15        0.1237317560
   16        0.0045498240
   17       -0.0468934240
   18       -0.1885778620
   19       -0.0043218180
   20        0.0029151690
   21        0.0069051170
   22        0.0407721500
   23       -0.0256323710
   24        0.0225488480
   25       -0.0282063350
   26       -0.0513300270
   27        0.1697748780
   28       -0.0153365950
   29       -0.0049248490
   30        0.0061714850
   31        0.3079124750
   32       -0.2101407390
   33       -0.2565615950
   34       -0.1007446710
   35        0.0653104590
   36        0.0502953080
   37       -0.0574608890
   38        0.0036403240
   39       -0.0043024540
   40        0.0271906920
 Sym= A
 Ene=         20.00000000
 Spin= Alpha
 Occup=        0.00000000
    1       -0.1730489660
    2       -0.8356160170
    3        3.2994032200
    4        0.0054557630
    5        0.0937097680
    6        0.2799622800
    7        0.9461057560
    8       -0.1282277670
    9       -0.4435964460
   10        0.2976773500
   11       -1.1468513400
   12       -1.0875513900
   13       -0.1129067050
   14       -0.1961477680
   15       -0.2358175980
   16        0.0002060100
   17        0.0907156720
   18       -0.2330658510
   19       -0.0010871110
   20       -0.0110829580
   21       -0.0891213990
   22       -0.0880612210
   23        0.1095859310
   24        0.1654233590
   25       -0.0094349520
   26        0.0111165980
   27        0.1176838870
   28        0.0029638620
   29        0.0344398200
   30       -0.0367048190
   31       -0.9485130050
   32       -0.8982381310
   33        0.1363551460
   34        0.0092739740
   35       -0.0678036370
   36       -0.0011888390
   37       -0.0646918180
   38       -0.0020432290
   39       -0.0009346300
   40        0.0062856810
 Sym= A
 Ene=         21.00000000
 Spin= Alpha
 Occup=       -0.00000000
    1       -0.2447089450
    2        0.7439338400
    3        0.4445231290
    4       -0.2079075830
    5       -0.1858919660
    6       -0.1765950530
    7       -0.1903320040
    8        0.2260110690
    9       -0.0322756550
   10       -0.8735887770
   11       -0.6330982380
   12       -1.0736060900
   13       -0.5168639440
   14        0.4704862100
   15        0.1022476500
   16       -0.0343320350
   17       -0.1433861480
   18        0.4946198300
   19        0.0059664630
   20       -0.0128523970
   21       -0.0086349570
   22       -0.0609535190
   23       -0.0444248170
   24       -0.4229056970
   25       -0.1639979340
   26       -0.1734135330
   27        0.2204176010
   28        0.0128398880
   29        0.0482345450
   30       -0.0020098380
   31        0.5068202050
   32        0.0704150980
   33       -0.3236744750
   34        0.0658268620
   35        0.0290713010
   36        0.0242991940
   37       -0.0659295030
   38        0.0078691760
   39       -0.0188951370
   40        0.0450076460
 Sym= A
 Ene=         22.00000000
 Spin= Alpha
 Occup=        0.00000000
    1       -0.1955197960
    2       -0.4848383830
    3        2.6372565500
    4        0.0554756660
    5        0.2954583420
    6       -0.0509954920
    7       -0.3673645360
    8       -0.3773084810
    9        0.8077366180
   10       -1.5622722800
   11       -0.5744362190
   12       -0.1219936790
   13       -0.3268115580
   14       -0.3433273630
   15       -0.3185905310
   16        0.0577820230
   17        0.0287297170
   18       -1.0000913200
   19       -0.0096306010
   20       -0.0055125540
   21        0.0716282280
   22        0.1477025680
   23        0.2189286090
   24        0.7238776420
   25        0.1649018140
   26        0.1447793430
   27       -0.0093945030
   28        0.0078022070
   29       -0.0677065600
   30       -0.0524816260
   31        0.4672306080
   32       -0.1965648600
   33       -0.2195418890
   34        0.0370047130
   35        0.1165602990
   36        0.0028103260
   37       -0.1652190250
   38       -0.0123777380
   39        0.0138238700
   40        0.0101941420
 Sym= A
 Ene=         23.00000000
 Spin= Alpha
 Occup=        0.00000000
    1        0.0725455150
    2        0.0638507700
    3       -1.2430563000
    4       -0.0099171170
    5        0.0035455210
    6       -0.0726358330
    7       -0.0710528580
    8       -0.0042732750
    9       -0.9337560280
   10        0.2046941490
   11        0.2098499950
   12       -0.0748194520
   13       -0.0031230660
   14        0.0150502820
   15       -0.0241686640
   16       -0.0359867420
   17       -0.8235971010
   18        2.0155978600
   19       -0.7196096300
   20        0.0726384030
   21        0.2281588270
   22        0.8687307690
   23       -0.1531152610
   24       -1.1724120100
   25       -0.4343151780
   26       -0.3393843770
   27        0.2049231080
   28        0.0749003350
   29        0.2802039030
   30       -0.1873436400
   31        0.0586592110
   32       -0.1832401620
   33        0.0231279980
   34        0.0016011230
   35        0.0106226480
   36        0.1673364870
   37       -0.0378476330
   38       -0.0149547370
   39       -0.0395841690
   40        0.0371583190
 Sym= A
 Ene=         24.00000000
 Spin= Alpha
 Occup=       -0.00000000
    1        0.0178614180
    2        0.0449332850
    3       -0.3411064480
    4        0.0086263020
    5        0.0203427280
    6        0.0050469270
    7        0.0615578960
    8        0.0166178980
    9       -0.2659079180
   10        0.0481562180
   11        0.0602872730
   12       -0.0074083130
   13       -0.0043520220
   14       -0.0071019940
   15       -0.0715792270
   16        0.0317097620
   17       -0.4325775410
   18        0.4340586890
   19        0.3117827310
   20        0.5387721790
   21       -0.0496191180
   22       -0.2625963030
   23       -0.8714323340
   24       -0.2824914930
   25        0.1198553760
   26       -0.1422682420
   27       -0.0161301060
   28        0.1027551800
   29       -0.0595250040
   30       -0.7157385460
   31       -0.0018900240
   32       -0.0477836050
   33        0.0063919960
   34        0.0049145210
   35        0.0088907750
   36        0.4108537830
   37        0.1221140030
   38        0.0393500430
   39       -0.0667020440
   40        0.0568111000
 Sym= A
 Ene=         25.00000000
 Spin= Alpha
 Occup=        0.00000000
    1        0.0730043050
    2        0.0505504080
    3       -1.3524250100
    4        0.0267338010
    5       -0.0085613330
    6       -0.0648244870
    7       -0.1425456240
    8       -0.0956818240
    9       -0.8919537480
   10        0.1423839290
   11        0.2022584210
   12        0.0239171390
   13        0.0023483340
   14       -0.0786891160
   15       -0.0226135610
   16       -0.0782948640
   17       -0.8327344390
   18        2.6368789300
   19        0.0836119430
   20       -0.2070131780
   21        0.5302693590
   22       -0.2259205520
   23        0.7438972280
   24       -1.3340523000
   25       -0.2618266020
   26       -0.1657195550
   27       -0.2332586430
   28       -0.2114952830
   29       -0.6782743380
   30        0.0897033780
   31        0.1085318170
   32       -0.0917467260
   33        0.0139752050