[Molden Format]
 Molden2AIM, Version 5.0.2 (10/09/2020)           Time: Tue Apr  6 00:21:31 2021

[Atoms] AU
  O      1    8        0.0000000000        0.0000000000        0.0000000000
  O      2    8        0.0000000000        0.0000000000        2.7620617201
  H      3    1        1.7632934844        0.0000000000       -0.4771921162
  H      4    1       -0.8816467365        1.5270569459        3.2392538382
[GTO]
    1    0
 S    6  1.0
    0.5484672000D+04    0.1831100116D-02
    0.8252350000D+03    0.1395010088D-01
    0.1880470000D+03    0.6844510432D-01
    0.5296450000D+02    0.2327140147D+00
    0.1689757000D+02    0.4701930297D+00
    0.5799635000D+01    0.3585210226D+00
 S    3  1.0
    0.1553962000D+02   -0.1107766479D+00
    0.3599934000D+01   -0.1480255295D+00
    0.1013762000D+01    0.1130766406D+01
 S    1  1.0
    0.2700058000D+00    0.1000000000D+01
 P    3  1.0
    0.1553962000D+02    0.7087426029D-01
    0.3599934000D+01    0.3397528096D+00
    0.1013762000D+01    0.7271585926D+00
 P    1  1.0
    0.2700058000D+00    0.1000000000D+01
 D    1  1.0
    0.8000000000D+00    0.1000000000D+01

    2    0
 S    6  1.0
    0.5484672000D+04    0.1831100116D-02
    0.8252350000D+03    0.1395010088D-01
    0.1880470000D+03    0.6844510432D-01
    0.5296450000D+02    0.2327140147D+00
    0.1689757000D+02    0.4701930297D+00
    0.5799635000D+01    0.3585210226D+00
 S    3  1.0
    0.1553962000D+02   -0.1107766479D+00
    0.3599934000D+01   -0.1480255295D+00
    0.1013762000D+01    0.1130766406D+01
 S    1  1.0
    0.2700058000D+00    0.1000000000D+01
 P    3  1.0
    0.1553962000D+02    0.7087426029D-01
    0.3599934000D+01    0.3397528096D+00
    0.1013762000D+01    0.7271585926D+00
 P    1  1.0
    0.2700058000D+00    0.1000000000D+01
 D    1  1.0
    0.8000000000D+00    0.1000000000D+01

    3    0
 S    3  1.0
    0.1873114000D+02    0.3349460926D-01
    0.2825394000D+01    0.2347270649D+00
    0.6401217000D+00    0.8137572250D+00
 S    1  1.0
    0.1612778000D+00    0.1000000000D+01
 P    1  1.0
    0.1100000000D+01    0.1000000000D+01

    4    0
 S    3  1.0
    0.1873114000D+02    0.3349460926D-01
    0.2825394000D+01    0.2347270649D+00
    0.6401217000D+00    0.8137572250D+00
 S    1  1.0
    0.1612778000D+00    0.1000000000D+01
 P    1  1.0
    0.1100000000D+01    0.1000000000D+01

[MO]
 Sym= A
 Ene=          1.00000000
 Spin= Alpha
 Occup=        2.00000200
    1        1.0107870000
    2       -0.0197855910
    3       -0.0490977110
    4        0.0029453970
    5        0.0002541200
    6        0.0024059070
    7        0.0011231590
    8       -0.0001689710
    9       -0.0015851390
   10        0.0009974030
   11        0.0005434780
   12       -0.0015408800
   13        0.0000731780
   14       -0.0000723260
   15       -0.0001051870
   16        0.0007142160
   17       -0.0028089940
   18        0.0037021950
   19        0.0000620300
   20       -0.0002099670
   21        0.0074145010
   22        0.0000027010
   23       -0.0003460380
   24        0.0008378090
   25        0.0005959640
   26        0.0008468280
   27       -0.0014427920
   28       -0.0001681610
   29       -0.0002593020
   30        0.0003090200
   31       -0.0099533760
   32        0.0025817670
   33        0.0031323590
   34        0.0000147090
   35       -0.0005179700
   36       -0.0000939410
   37        0.0008862610
   38       -0.0000649470
   39        0.0000956240
   40        0.0001909190
 Sym= A
 Ene=          2.00000000
 Spin= Alpha
 Occup=        1.99999900
    1        0.0007145430
    2       -0.0028093750
    3        0.0037018250
    4       -0.0002135620
    5       -0.0000511700
    6       -0.0074145370
    7       -0.0003012230
    8       -0.0001708800
    9       -0.0008377990
   10        0.0009105570
   11        0.0005322610
   12       -0.0014428180
   13        0.0000418570
   14       -0.0003970340
   15        0.0000695390
   16        1.0107872400
   17       -0.0197863560
   18       -0.0490986090
   19       -0.0012538690
   20        0.0026778290
   21       -0.0024059870
   22       -0.0007086800
   23        0.0008880300
   24        0.0015850320
   25        0.0006015650
   26        0.0009393480
   27       -0.0015409120
   28       -0.0001909660
   29        0.0000550220
   30        0.0001144570
   31       -0.0000940190
   32        0.0008862860
   33        0.0001147570
   34       -0.0000078830
   35       -0.0001909250
   36       -0.0099532060
   37        0.0025819240
   38       -0.0015530220
   39        0.0027208980
   40        0.0005179630
 Sym= A
 Ene=          3.00000000
 Spin= Alpha
 Occup=        2.00000000
    1       -0.1232680060
    2        0.4243169750
    3        0.4977853470
    4       -0.3326113740
    5        0.1710276040
    6       -0.1663381760
    7       -0.2257331910
    8        0.1263245920
    9       -0.1200012210
   10       -0.0122059700
   11        0.0118807460
   12        0.0003252210
   13        0.0040669900
   14       -0.0092184650
   15        0.0024079240
   16        0.0096865590
   17       -0.0256603680
   18       -0.0324487400
   19        0.0189809800
   20       -0.0076493640
   21        0.0559270980
   22        0.0284232950
   23       -0.0128985430
   24        0.0567033590
   25       -0.0023413180
   26       -0.0018006000
   27        0.0041419200
   28        0.0016137040
   29        0.0071224720
   30       -0.0029799300
   31       -0.0533731410
   32       -0.0692772860
   33       -0.0071494430
   34        0.0052979840
   35       -0.0045870120
   36       -0.0127507950
   37        0.0035640770
   38        0.0005787610
   39        0.0001490050
   40        0.0016295100
 Sym= A
 Ene=          4.00000000
 Spin= Alpha
 Occup=        1.99999900
    1       -0.0344993700
    2        0.1220221930
    3        0.1357341910
    4       -0.0866906420
    5       -0.6437373620
    6       -0.0344998480
    7       -0.0554747550
    8       -0.4694351880
    9       -0.0288737020
   10       -0.0016633420
   11        0.0007377100
   12        0.0009256310
   13       -0.0215308230
   14       -0.0013257220
   15       -0.0078519460
   16        0.0052142850
   17       -0.0105736010
   18       -0.0328305410
   19        0.0111317120
   20        0.0227422460
   21        0.0107342620
   22        0.0175834940
   23        0.0360324070
   24        0.0123643250
   25       -0.0016310080
   26        0.0006271550
   27        0.0010038530
   28       -0.0013548420
   29        0.0007092430
   30        0.0156713500
   31       -0.0141103480
   32       -0.0256211830
   33       -0.0017166040
   34       -0.0202841650
   35       -0.0006253540
   36        0.0239777810
   37        0.0264395450
   38        0.0010793700
   39        0.0001984840
   40        0.0007722730
 Sym= A
 Ene=          5.00000000
 Spin= Alpha
 Occup=        1.99999900
    1        0.0096942360
    2       -0.0256761180
    3       -0.0324947320
    4       -0.0161098460
    5        0.0126521330
    6       -0.0559423190
    7       -0.0253586340
    8        0.0182185730
    9       -0.0567225080
   10       -0.0031450600
   11       -0.0009988520
   12        0.0041439150
   13        0.0010782310
   14        0.0061229460
   15       -0.0046893550
   16       -0.1233180090
   17        0.4245015470
   18        0.4979867710
   19        0.3136753500
   20       -0.2030877230
   21        0.1663892920
   22        0.2217198550
   23       -0.1327231890
   24        0.1200423260
   25        0.0028323600
   26       -0.0031584530
   27        0.0003260900
   28        0.0140620220
   29       -0.0066854240
   30        0.0067863860
   31       -0.0127244250
   32        0.0035985690
   33       -0.0001605880
   34        0.0005777170
   35       -0.0016308920
   36       -0.0533811510
   37       -0.0693099370
   38        0.0081402530
   39       -0.0035602080
   40        0.0045875060
 Sym= A
 Ene=          6.00000000
 Spin= Alpha
 Occup=        1.99999900
    1        0.0051997270
    2       -0.0105360350
    3       -0.0327809030
    4        0.0141504160
    5        0.0209683830
    6       -0.0106486220
    7        0.0224475300
    8        0.0332014150
    9       -0.0122783510
   10        0.0010832660
   11       -0.0020813540
   12        0.0009980890
   13        0.0004493270
   14       -0.0132246720
   15       -0.0084441060
   16       -0.0343184620
   17        0.1213939670
   18        0.1350070630
   19       -0.5145760480
   20       -0.3966894710
   21        0.0342519780
   22       -0.3791111650
   23       -0.2825901010
   24        0.0286982190
   25        0.0162812410
   26       -0.0172079260
   27        0.0009266870
   28       -0.0095839660
   29        0.0061472680
   30        0.0050654890
   31        0.0239930010
   32        0.0264326550
   33       -0.0003674330
   34        0.0010318070
   35       -0.0007698340
   36       -0.0140616970
   37       -0.0255312630
   38       -0.0167211360
   39       -0.0116211900
   40        0.0006195310
 Sym= A
 Ene=          7.00000000
 Spin= Alpha
 Occup=        1.99999900
    1       -0.0320836840
    2        0.1366519820
    3        0.0813573270
    4        0.0224039220
    5        0.0010452270
    6        0.3951301740
    7        0.0298963760
    8        0.0048107970
    9        0.2479258400
   10       -0.0202249790
   11       -0.0169433000
   12        0.0371682840
   13       -0.0004147040
   14        0.0139013400
   15        0.0030940480
   16       -0.0320806770
   17        0.1366436970
   18        0.0813498130
   19       -0.0102918420
   20        0.0199172330
   21       -0.3951319720
   22       -0.0107792830
   23        0.0282918970
   24       -0.2479258590
   25       -0.0174527610
   26       -0.0197159270
   27        0.0371686920
   28        0.0014339590
   29        0.0042707370
   30       -0.0135861230
   31       -0.0187438790
   32       -0.0436035040
   33       -0.0010562250
   34       -0.0002996410
   35        0.0093717610
   36       -0.0187508410
   37       -0.0436055070
   38        0.0002682620
   39       -0.0010634200
   40       -0.0093715460
 Sym= A
 Ene=          8.00000000
 Spin= Alpha
 Occup=        2.00000300
    1       -0.0594431960
    2        0.2295784440
    3        0.1541442140
    4        0.4429295880
    5        0.0039066560
    6       -0.0913157630
    7        0.2600492390
    8        0.0026447080
    9       -0.0299281160
   10        0.0259509260
   11       -0.0104305050
   12       -0.0155204180
   13        0.0012941750
   14       -0.0011918360
   15       -0.0006720690
   16        0.0077528430
   17       -0.0159550610
   18       -0.0400295410
   19       -0.0159634340
   20       -0.0061822170
   21        0.0400903860
   22       -0.0296022070
   23       -0.0080355360
   24        0.0424816510
   25        0.0008579780
   26       -0.0014722730
   27        0.0006142950
   28       -0.0005020000
   29       -0.0096087970
   30        0.0016792680
   31        0.3102294170
   32        0.1090265430
   33       -0.0334416220
   34        0.0003636450
   35        0.0082130890
   36        0.0114726950
   37        0.0075873800
   38       -0.0005574000
   39       -0.0005750220
   40        0.0012014340
 Sym= A
 Ene=          9.00000000
 Spin= Alpha
 Occup=        2.00000600
    1        0.0077510880
    2       -0.0159497970
    3       -0.0400334550
    4        0.0026644810
    5       -0.0169150550
    6       -0.0400801240
    7        0.0078655940
    8       -0.0296512920
    9       -0.0424728520
   10       -0.0005118220
   11       -0.0001024270
   12        0.0006142490
   13       -0.0014153570
   14       -0.0062599340
   15        0.0074806530
   16       -0.0594415980
   17        0.2295749280
   18        0.1541365010
   19       -0.2181441990
   20        0.3855139690
   21        0.0913029840
   22       -0.1277812740
   23        0.2265114760
   24        0.0299205390
   25       -0.0023044170
   26        0.0178239130
   27       -0.0155194930
   28       -0.0175452570
   29       -0.0000134920
   30        0.0013689620
   31        0.0114937160
   32        0.0075965230
   33       -0.0002202610
   34       -0.0007707000
   35       -0.0012006290
   36        0.3102304900
   37        0.1090261040
   38        0.0170336950
   39       -0.0287801360
   40       -0.0082134260
 Sym= A
 Ene=         10.00000000
 Spin= Alpha
 Occup=        0.00000000
    1       -0.0607488460
    2        0.2773828460
    3        0.0985667910
    4       -0.0150878350
    5        0.0040058010
    6        0.6070462210
    7        0.0045305220
    8        0.0112529780
    9        0.3643598620
   10       -0.0081128790
   11        0.0008819480
   12        0.0563782750
   13       -0.0006436230
   14        0.0167567890
   15        0.0052273080
   16        0.0607874240
   17       -0.2774269570
   18       -0.0990608720
   19       -0.0108471660
   20        0.0109055810
   21        0.6069394360
   22       -0.0074089500
   23       -0.0097976310
   24        0.3644272660
   25        0.0009026760
   26        0.0062189690
   27       -0.0561238830
   28       -0.0040432990
   29       -0.0039768240
   30        0.0171865290
   31        0.0254690280
   32       -0.0053909040
   33       -0.0071201310
   34        0.0000175780
   35        0.0051565430
   36       -0.0252147830
   37        0.0056714390
   38       -0.0032692520
   39        0.0057934200
   40        0.0048014960
 Sym= A
 Ene=         11.00000000
 Spin= Alpha
 Occup=       -0.00000000
    1        0.0813587310
    2       -0.3791859590
    3       -0.3049446470
    4       -0.5692879330
    5       -0.0031316030
    6        0.1749913070
    7       -0.4438441170
    8       -0.0018176350
    9        0.1199697120
   10       -0.0725546390
   11        0.0127000490
   12        0.0185089540
   13       -0.0010778560
   14        0.0193569170
   15        0.0006894310
   16        0.0028630250
   17       -0.0173216920
   18       -0.0250418330
   19        0.0393776920
   20        0.0109819970
   21        0.0011935000
   22        0.0410277380
   23        0.0058558570
   24        0.0011065800
   25        0.0045093650
   26        0.0029035560
   27       -0.0076524200
   28        0.0007159490
   29        0.0003343790
   30       -0.0002686990
   31        1.0344548400
   32        0.3841174560
   33       -0.0677042680
   34        0.0010894560
   35        0.0192107770
   36       -0.0188559650
   37       -0.0002364670
   38       -0.0006318860
   39        0.0013192800
   40       -0.0001433600
 Sym= A
 Ene=         12.00000000
 Spin= Alpha
 Occup=        0.00000000
    1        0.0028662310
    2       -0.0173215180
    3       -0.0251343880
    4       -0.0101729230
    5        0.0396207330
    6       -0.0012993810
    7       -0.0155361660
    8        0.0384711740
    9       -0.0011086430
   10        0.0028785670
   11        0.0047410230
   12       -0.0078419790
   13       -0.0004766940
   14        0.0004365890
   15       -0.0002118540
   16        0.0812400140
   17       -0.3786132840
   18       -0.3041132910
   19        0.2813879920
   20       -0.4940449820
   21       -0.1748234420
   22        0.2207449800
   23       -0.3853755390
   24       -0.1200350300
   25       -0.0080955730
   26       -0.0525695280
   27        0.0187168830
   28        0.0423952600
   29        0.0092330040
   30       -0.0174449120
   31       -0.0189548660
   32       -0.0000900610
   33        0.0015309120
   34        0.0001248680
   35        0.0001239180
   36        1.0353051100
   37        0.3828516710
   38        0.0339255070
   39       -0.0570270270
   40       -0.0189117040
 Sym= A
 Ene=         13.00000000
 Spin= Alpha
 Occup=       -0.00000000
    1       -0.0300229120
    2       -0.8498213090
    3        1.9930935800
    4        0.3805713610
    5       -0.6041523160
    6       -0.2149222460
    7       -0.5649160460
    8        0.7090188810
    9        1.1792422000
   10       -0.4124252830
   11       -0.3536030220
   12        0.2164898280
   13        0.1035547840
   14        0.2800162690
   15       -0.1752188350
   16        0.0731685720
   17        0.0664820660
   18       -1.2542080600
   19        0.0105811980
   20       -0.0082663930
   21        0.0732644050
   22        0.0305469500
   23       -0.0654290130
   24        0.9415858670
   25        0.2116512640
   26        0.2041939040
   27       -0.0747270790
   28        0.0008395660
   29        0.0253808110
   30       -0.0044056370
   31        0.2203964170
   32       -0.0064006440
   33       -0.0374391270
   34       -0.0269820560
   35       -0.0368418660
   36        0.0602469340
   37       -0.1851700280
   38       -0.0087016730
   39        0.0187896990
   40       -0.0105285420
 Sym= A
 Ene=         14.00000000
 Spin= Alpha
 Occup=       -0.00000000
    1        0.0267409240
    2       -0.4343792650
    3        0.4981197070
    4        0.3583105130
    5        0.5323513850
    6        0.0356596100
    7       -0.6524381760
    8       -0.6076184930
    9        0.3064342460
   10       -0.1769896280
   11        0.1213889420
   12       -0.0068634220
   13       -0.0395347080
   14        0.5972988080
   15        0.3630731610
   16        0.0191984770
   17        0.0435918250
   18       -0.3625091850
   19        0.0126754480
   20        0.0147057970
   21       -0.0011659110
   22       -0.0101848340
   23        0.0656437440
   24        0.2833324810
   25        0.0642426740
   26        0.0521588760
   27       -0.0107584930
   28        0.0023105930
   29        0.0584448570
   30        0.0369860830
   31        0.3723423010
   32        0.0989927810
   33       -0.0753429970
   34        0.0222606950
   35       -0.0536540200
   36       -0.0032891910
   37       -0.0519110160
   38        0.0010343660
   39        0.0078501710
   40       -0.0075593400
 Sym= A
 Ene=         15.00000000
 Spin= Alpha
 Occup=        0.00000000
    1       -0.0772862730
    2       -0.7745879330
    3        2.5144559300
    4       -0.1767382160
    5       -0.0074524600
    6       -0.5614085760
    7        0.7020993520
    8        0.0555081980
    9        1.3501454500
   10       -0.0059725320
   11       -0.3765017680
   12       -0.2470230080
   13       -0.1367567170
   14       -0.4214772600
   15        0.5509966840
   16        0.0709077020
   17        0.0392910330
   18       -1.3135687700
   19       -0.0180164990
   20        0.0202489470
   21        0.0675402540
   22       -0.0058508280
   23       -0.1549064390
   24        0.8636726050
   25        0.1742614420
   26        0.1487946730
   27        0.0304381340
   28        0.0310284100
   29       -0.0188560050
   30        0.0725415200
   31       -0.5396180330
   32       -0.4228852080
   33        0.1218415620
   34        0.0316023570
   35       -0.0236844660
   36        0.1050534720
   37       -0.0904103960
   38       -0.0047652300
   39        0.0095906720
   40       -0.0339536160
 Sym= A
 Ene=         16.00000000
 Spin= Alpha
 Occup=        0.00000000
    1       -0.0877416430
    2       -0.3278804120
    3        1.5518260200
    4       -0.2073828220
    5       -0.1393854960
    6        0.3320168250
    7        0.4174137910
    8        0.2092073980
    9       -0.0581522510
   10       -0.5649596310
   11       -0.8533684530
   12        0.5562830740
   13       -0.1080035810
   14        0.0672716340
   15        0.4941775910
   16        0.0481487960
   17        0.1328595760
   18       -0.7710666600
   19       -0.0108266080
   20        0.0086020800
   21        0.0446271280
   22       -0.0293991440
   23       -0.2070330320
   24        0.4239825590
   25        0.1837295410
   26        0.1739186140
   27       -0.1105923900
   28        0.0141409550
   29        0.0148297430
   30        0.0700478450
   31       -0.0895697390
   32       -0.3138322830
   33       -0.0734765560
   34        0.0246895420
   35        0.0261675550
   36        0.1000037250
   37        0.0432609590
   38       -0.0060234870
   39        0.0171678210
   40       -0.0143862290
 Sym= A
 Ene=         17.00000000
 Spin= Alpha
 Occup=        0.00000000
    1        0.0238681440
    2       -0.1332467950
    3       -0.1755840850
    4        0.0874258740
    5       -0.3113118690
    6        0.4668215640
    7       -0.0900884230
    8        0.4004189710
    9       -1.0803245500
   10       -0.2706600370
   11        0.7161845280
   12       -0.6040628610
   13       -0.0852323210
   14       -0.2129482430
   15        0.3450684140
   16       -0.0474854010
   17        0.0397333610
   18        0.7098929490
   19       -0.0037829200
   20       -0.0063195660
   21       -0.1248459970
   22        0.1294365070
   23       -0.2233954550
   24       -0.5532157170
   25       -0.1160346340
   26       -0.1577883720
   27        0.1138811040
   28        0.0188094140
   29       -0.0323361520
   30        0.0450384280
   31        0.1208354910
   32       -0.2461990600
   33       -0.0276199400
   34        0.0155335870
   35        0.0476966000
   36        0.1062150740
   37        0.0535183380
   38        0.0087143450
   39       -0.0133247700
   40       -0.0011437330
 Sym= A
 Ene=         18.00000000
 Spin= Alpha
 Occup=       -0.00000000
    1       -0.0084859080
    2       -0.6292179570
    3        1.4547567100
    4       -0.6364967370
    5       -0.0257177050
    6        0.0038327850
    7        1.2946326700
    8        0.0107199140
    9        0.1374116910
   10       -0.1118009960
   11        0.1643349600
   12       -0.1233606500
   13        0.1109990220
   14        0.5657648150
   15       -0.2030787770
   16        0.0132463660
   17        0.0531302200
   18       -0.3137603980
   19       -0.0211002710
   20       -0.0070230520
   21       -0.0161516240
   22       -0.3414536330
   23        0.0990615480
   24        0.3171412570
   25        0.0663498330
   26        0.0621996560
   27       -0.0384431550
   28       -0.0154414900
   29        0.0983301800
   30       -0.0194781770
   31       -0.3357993400
   32       -0.6448328190
   33       -0.0294933010
   34       -0.0199164870
   35       -0.0720955420
   36       -0.0740150070
   37       -0.0601788580
   38        0.0015865920
   39        0.0111572070
   40       -0.0021892610
 Sym= A
 Ene=         19.00000000
 Spin= Alpha
 Occup=        0.00000000
    1       -0.2156788440
    2       -0.1163610250
    3        2.0515111400
    4       -0.0995554100
    5        0.0290989880
    6       -0.0145720630
    7        0.1525295050
    8       -0.0589637380
    9        0.1170437390
   10       -0.7433884320
   11       -0.7844343210
   12       -0.8463688800
   13       -0.8694223570
   14        0.1384842080
   15       -0.2521268660
   16        0.0008399950
   17       -0.0324994030
   18       -0.1288837160
   19        0.0024484240
   20       -0.0179472790
   21       -0.0111974100
   22       -0.0584249170
   23        0.1325132490
   24        0.1097549040
   25       -0.0279032850
   26       -0.0280135410
   27        0.1202960620
   28        0.0174602120
   29        0.0261894320
   30       -0.0459393790
   31        0.0654965800
   32       -0.3268007230
   33       -0.1701625070
   34        0.1047924240
   35        0.0150796340
   36       -0.0065197250
   37       -0.1384473900
   38       -0.0007458950
   39       -0.0048663180
   40        0.0280640320
 Sym= A
 Ene=         20.00000000
 Spin= Alpha
 Occup=        0.00000000
    1        0.0179705760
    2       -1.1091658400
    3        2.2704301800
    4        0.1746660970
    5        0.2290359490
    6        0.3281178130
    7        0.7589650130
    8       -0.2934977780
    9       -0.2971630170
   10        0.7226107270
   11       -0.4936192500
   12       -0.1408135380
   13        0.0835633210
   14       -0.4989699550
   15       -0.3135985660
   16        0.0236517890
   17        0.1580048650
   18       -0.5144502440
   19       -0.0037430820
   20       -0.0023511130
   21       -0.0586805780
   22       -0.0044108260
   23        0.1366954690
   24        0.4091799070
   25        0.0996823640
   26        0.1205244300
   27       -0.0491466160
   28       -0.0006142370
   29       -0.0148766620
   30       -0.0389212780
   31       -1.0096957200
   32       -0.7075518910
   33        0.3032345840
   34       -0.0157938540
   35       -0.0604720040
   36       -0.0109704300
   37       -0.0129679640
   38       -0.0100284420
   39        0.0067491780
   40       -0.0247879810
 Sym= A
 Ene=         21.00000000
 Spin= Alpha
 Occup=        0.00000000
    1        0.0111568480
    2       -0.4005900870
    3        0.7185816220
    4       -0.0050591720
    5        0.2837535720
    6       -0.0881063190
    7       -0.3815420510
    8       -0.3610284550
    9        0.8371826800
   10       -1.0618524100
   11        0.3349285560
   12        0.7419977180
   13       -0.0728626710
   14       -0.2937327330
   15       -0.3005133050
   16        0.0593024880
   17        0.0480241660
   18       -0.9102273650
   19       -0.0153421960
   20        0.0025500100
   21        0.0929950400
   22        0.1189082690
   23        0.1742927210
   24        0.6924708820
   25        0.2036741440
   26        0.1796499010
   27       -0.1441115810
   28       -0.0005865990
   29       -0.0741422470
   30       -0.0407821410
   31        0.5253212360
   32        0.0848613880
   33       -0.1153157370
   34        0.0051645450
   35        0.1021590940
   36       -0.0118879860
   37       -0.0817801990
   38       -0.0142491110
   39        0.0171542230
   40       -0.0115151260
 Sym= A
 Ene=         22.00000000
 Spin= Alpha
 Occup=        0.00000000
    1       -0.3921337460
    2       -0.0903817010
    3        3.4862191500
    4       -0.1900576660
    5        0.0938470730
    6       -0.0435839850
    7        0.1263002230
    8       -0.1100602360
    9        0.2805501580
   10       -1.5985756700
   11       -1.3169467600
   12       -1.3723211500
   13        0.5107518470
   14        0.0067645390
   15       -0.0413382410
   16        0.0137894850
   17       -0.0385170810
   18       -0.4241281560
   19       -0.0067625730
   20       -0.0037181500
   21        0.0018716520
   22        0.0109528800
   23        0.0641302080
   24        0.1927381320
   25       -0.0135237870
   26       -0.0346109350
   27        0.2241478720
   28       -0.0085334430
   29        0.0057262390
   30       -0.0206896790
   31        0.2647143570
   32       -0.5018099820
   33       -0.3334378420
   34       -0.0660516930
   35        0.0762970690
   36        0.0459225730
   37       -0.1296365120
   38        0.0013808700
   39       -0.0024369570
   40        0.0393687240
 Sym= A
 Ene=         23.00000000
 Spin= Alpha
 Occup=       -0.00000000
    1        0.0732355320
    2        0.0669693790
    3       -1.2574805000
    4       -0.0105309840
    5        0.0012433370
    6       -0.0731429490
    7       -0.0690878120
    8       -0.0095678080
    9       -0.9462299540
   10        0.2077438700
   11        0.2108939950
   12       -0.0763581730
   13       -0.0030025190
   14        0.0173966460
   15       -0.0174257050
   16       -0.0334330770
   17       -0.8444552540
   18        2.0265571100
   19       -0.7175883530
   20       -0.0088052570
   21        0.2222475170
   22        0.8872174070
   23       -0.0701924280
   24       -1.1822113900
   25       -0.4558880260
   26       -0.3193880160
   27        0.2120801870
   28        0.0739417890
   29        0.2996031070
   30       -0.1293076710
   31        0.0586572660
   32       -0.1867104410
   33        0.0231904670
   34        0.0012974220
   35        0.0105861720
   36        0.1904103950
   37       -0.0248221080
   38       -0.0093612690
   39       -0.0399644990
   40        0.0342206310
 Sym= A
 Ene=         24.00000000
 Spin= Alpha
 Occup=       -0.00000000
    1        0.0228404870
    2        0.0461649620
    3       -0.4236505370
    4        0.0072490860
    5        0.0203647180
    6       -0.0027670550
    7        0.0605503270
    8        0.0237508340
    9       -0.3311625340
   10        0.0637275480
   11        0.0732569500
   12       -0.0149678080
   13       -0.0050897210
   14       -0.0017629020
   15       -0.0698055250
   16        0.0244017450
   17       -0.4732836180
   18        0.6041428830
   19        0.2528791200
   20        0.5839520300
   21       -0.0220080020
   22       -0.1662738340
   23       -0.8752331760
   24       -0.3652425310
   25        0.0502382370
   26       -0.1469050440
   27        0.0045657000
   28        0.1320081280
   29        0.0027614990
   30       -0.6957745900
   31       -0.0005486500
   32       -0.0624552040
   33        0.0079876340
   34        0.0048999650
   35        0.0082191850
   36        0.3775309150
   37        0.0945839900
   38        0.0488541590
   39       -0.0489614190
   40        0.0521402290
 Sym= A
 Ene=         25.00000000
 Spin= Alpha
 Occup=        0.00000000
    1        0.0701308990
    2        0.0400118360
    3       -1.3014939800
    4        0.0261385680
    5       -0.0052694370
    6       -0.0661088800
    7       -0.1337692010
    8       -0.0813431780
    9       -0.8544307320
   10        0.1292188360
   11        0.1898485750
   12        0.0317045840
   13        0.0027496490
   14       -0.0750452110
   15       -0.0196583340
   16       -0.0761119860
   17       -0.7685572440
   18        2.4859083900
   19        0.0826618540
   20       -0.1554323840
   21        0.5553814420
   22       -0.2990482340
   23        0.6264971380
   24       -1.3362232000
   25       -0.1742565350
   26       -0.1987460840
   27       -0.2492121220
   28       -0.2535985280
   29       -0.6957827930
   30        0.0886190930
   31        0.1052728560
   32       -0.0885175960
   33        0.0116014780