[Molden Format]
 Molden2AIM, Version 5.0.2 (10/09/2020)           Time: Tue Apr  6 00:21:31 2021

[Atoms] AU
  O      1    8        0.0000000000        0.0000000000        0.0000000000
  O      2    8        0.0000000000        0.0000000000        2.7620617201
  H      3    1        1.7632934844        0.0000000000       -0.4771921162
  H      4    1        1.1334231960        1.3507611636        3.2392538382
[GTO]
    1    0
 S    6  1.0
    0.5484672000D+04    0.1831100116D-02
    0.8252350000D+03    0.1395010088D-01
    0.1880470000D+03    0.6844510432D-01
    0.5296450000D+02    0.2327140147D+00
    0.1689757000D+02    0.4701930297D+00
    0.5799635000D+01    0.3585210226D+00
 S    3  1.0
    0.1553962000D+02   -0.1107766479D+00
    0.3599934000D+01   -0.1480255295D+00
    0.1013762000D+01    0.1130766406D+01
 S    1  1.0
    0.2700058000D+00    0.1000000000D+01
 P    3  1.0
    0.1553962000D+02    0.7087426029D-01
    0.3599934000D+01    0.3397528096D+00
    0.1013762000D+01    0.7271585926D+00
 P    1  1.0
    0.2700058000D+00    0.1000000000D+01
 D    1  1.0
    0.8000000000D+00    0.1000000000D+01

    2    0
 S    6  1.0
    0.5484672000D+04    0.1831100116D-02
    0.8252350000D+03    0.1395010088D-01
    0.1880470000D+03    0.6844510432D-01
    0.5296450000D+02    0.2327140147D+00
    0.1689757000D+02    0.4701930297D+00
    0.5799635000D+01    0.3585210226D+00
 S    3  1.0
    0.1553962000D+02   -0.1107766479D+00
    0.3599934000D+01   -0.1480255295D+00
    0.1013762000D+01    0.1130766406D+01
 S    1  1.0
    0.2700058000D+00    0.1000000000D+01
 P    3  1.0
    0.1553962000D+02    0.7087426029D-01
    0.3599934000D+01    0.3397528096D+00
    0.1013762000D+01    0.7271585926D+00
 P    1  1.0
    0.2700058000D+00    0.1000000000D+01
 D    1  1.0
    0.8000000000D+00    0.1000000000D+01

    3    0
 S    3  1.0
    0.1873114000D+02    0.3349460926D-01
    0.2825394000D+01    0.2347270649D+00
    0.6401217000D+00    0.8137572250D+00
 S    1  1.0
    0.1612778000D+00    0.1000000000D+01
 P    1  1.0
    0.1100000000D+01    0.1000000000D+01

    4    0
 S    3  1.0
    0.1873114000D+02    0.3349460926D-01
    0.2825394000D+01    0.2347270649D+00
    0.6401217000D+00    0.8137572250D+00
 S    1  1.0
    0.1612778000D+00    0.1000000000D+01
 P    1  1.0
    0.1100000000D+01    0.1000000000D+01

[MO]
 Sym= A
 Ene=          1.00000000
 Spin= Alpha
 Occup=        1.99999900
    1        1.0108825900
    2       -0.0201751360
    3       -0.0493995060
    4        0.0031822290
    5        0.0001881680
    6        0.0024001190
    7        0.0008219030
    8       -0.0001196730
    9       -0.0015285960
   10        0.0009950360
   11        0.0005562540
   12       -0.0015512900
   13       -0.0000649460
   14       -0.0001968480
   15       -0.0000845200
   16        0.0006835310
   17       -0.0028136920
   18        0.0040975910
   19       -0.0001908380
   20       -0.0001609230
   21        0.0074180700
   22       -0.0002998230
   23       -0.0001252690
   24        0.0008665870
   25        0.0006558160
   26        0.0008057490
   27       -0.0014615650
   28        0.0002054050
   29        0.0001371780
   30        0.0002608480
   31       -0.0098405540
   32        0.0027396000
   33        0.0031520420
   34        0.0000055830
   35       -0.0005540980
   36       -0.0002406190
   37        0.0004661740
   38        0.0000851850
   39        0.0001117380
   40        0.0001906900
 Sym= A
 Ene=          2.00000000
 Spin= Alpha
 Occup=        1.99999900
    1        0.0006834050
    2       -0.0028139170
    3        0.0040972840
    4       -0.0002457850
    5       -0.0000429040
    6       -0.0074181200
    7       -0.0002888640
    8       -0.0001493610
    9       -0.0008665750
   10        0.0009187220
   11        0.0005428740
   12       -0.0014615950
   13       -0.0000496880
   14       -0.0002886570
   15        0.0000628840
   16        1.0108827400
   17       -0.0201755910
   18       -0.0494001000
   19        0.0021897360
   20        0.0023170960
   21       -0.0024001200
   22        0.0004374880
   23        0.0007071030
   24        0.0015285260
   25        0.0006822780
   26        0.0008690470
   27       -0.0015513250
   28        0.0002379760
   29        0.0001910430
   30        0.0000965180
   31       -0.0002404190
   32        0.0004662760
   33        0.0001403530
   34       -0.0000066140
   35       -0.0001906840
   36       -0.0098401790
   37        0.0027398210
   38        0.0020308430
   39        0.0024114270
   40        0.0005540850
 Sym= A
 Ene=          3.00000000
 Spin= Alpha
 Occup=        2.00000300
    1       -0.0942747470
    2        0.3252844090
    3        0.3836557060
    4       -0.2498047120
    5        0.4538386320
    6       -0.1269731010
    7       -0.1642590300
    8        0.3293526650
    9       -0.0923090120
   10       -0.0102820520
   11        0.0101303170
   12        0.0001517370
   13        0.0159446520
   14       -0.0061618100
   15        0.0049541150
   16        0.0077227300
   17       -0.0192667920
   18       -0.0305211090
   19        0.0147053070
   20       -0.0237107470
   21        0.0421288040
   22        0.0193941440
   23       -0.0398753320
   24        0.0418536510
   25       -0.0012994850
   26       -0.0020443700
   27        0.0033438560
   28       -0.0008300850
   29        0.0060113670
   30       -0.0091011490
   31       -0.0414015210
   32       -0.0588380410
   33       -0.0057950580
   34        0.0143235560
   35       -0.0038374850
   36       -0.0056055920
   37        0.0093801260
   38        0.0005795680
   39       -0.0013676810
   40        0.0008919170
 Sym= A
 Ene=          4.00000000
 Spin= Alpha
 Occup=        1.99999900
    1       -0.0878496880
    2        0.3077038980
    3        0.3504515030
    4       -0.2296087090
    5       -0.4897150340
    6       -0.1059405140
    7       -0.1547750090
    8       -0.3558683610
    9       -0.0808926060
   10       -0.0083182880
   11        0.0071005200
   12        0.0012177690
   13       -0.0177132520
   14       -0.0068348790
   15       -0.0062151340
   16        0.0097960850
   17       -0.0227104700
   18       -0.0491951060
   19        0.0046413860
   20        0.0142464630
   21        0.0335116870
   22        0.0063748970
   23        0.0233708010
   24        0.0359907060
   25       -0.0020775320
   26       -0.0004375840
   27        0.0025151170
   28        0.0008323870
   29        0.0072817680
   30        0.0127844050
   31       -0.0345081560
   32       -0.0567923690
   33       -0.0053677720
   34       -0.0158033310
   35       -0.0030774730
   36        0.0259150770
   37        0.0294881680
   38       -0.0003708750
   39       -0.0001256090
   40        0.0019824280
 Sym= A
 Ene=          5.00000000
 Spin= Alpha
 Occup=        2.00000000
    1        0.0077181450
    2       -0.0192564440
    3       -0.0305029010
    4       -0.0087037570
    5        0.0264926490
    6       -0.0421181250
    7       -0.0180802330
    8        0.0404811530
    9       -0.0418403010
   10       -0.0024438770
   11       -0.0008985270
   12        0.0033424060
   13        0.0002787070
   14        0.0031132860
   15       -0.0104565180
   16       -0.0942399060
   17        0.3251654500
   18        0.3835220140
   19        0.1872779100
   20       -0.4831399880
   21        0.1269342660
   22        0.1468486430
   23       -0.3375767840
   24        0.0922800790
   25        0.0153004760
   26       -0.0154518570
   27        0.0001513800
   28       -0.0088329260
   29        0.0001615090
   30        0.0079035830
   31       -0.0056074590
   32        0.0093727100
   33       -0.0006760710
   34        0.0013219790
   35       -0.0008909470
   36       -0.0413936970
   37       -0.0588188280
   38        0.0072537860
   39       -0.0136488870
   40        0.0038365830
 Sym= A
 Ene=          6.00000000
 Spin= Alpha
 Occup=        2.00000100
    1        0.0098005830
    2       -0.0227236260
    3       -0.0492141370
    4        0.0139072930
    5       -0.0055698750
    6       -0.0335381130
    7        0.0220014040
    8       -0.0101082680
    9       -0.0360128870
   10       -0.0004049270
   11       -0.0021102550
   12        0.0025151850
   13       -0.0007859670
   14       -0.0144723500
   15        0.0026368640
   16       -0.0878860860
   17        0.3078332910
   18        0.3506004410
   19       -0.5226495030
   20        0.1387292730
   21        0.1060015330
   22       -0.3720368790
   23        0.1100658660
   24        0.0809340240
   25       -0.0143705480
   26        0.0131544040
   27        0.0012161440
   28       -0.0118448660
   29        0.0091552770
   30        0.0012428680
   31        0.0259205240
   32        0.0294959380
   33       -0.0003353680
   34       -0.0002025060
   35       -0.0019828150
   36       -0.0345080230
   37       -0.0568082660
   38       -0.0155553330
   39        0.0060402840
   40        0.0030786350
 Sym= A
 Ene=          7.00000000
 Spin= Alpha
 Occup=        1.99999600
    1       -0.0320956100
    2        0.1366918460
    3        0.0826697910
    4        0.0235784050
    5        0.0000861990
    6        0.3946144360
    7        0.0362415010
    8        0.0035062720
    9        0.2469534480
   10       -0.0195723820
   11       -0.0174396980
   12        0.0370120770
   13        0.0009447140
   14        0.0173749240
   15        0.0025328630
   16       -0.0320941650
   17        0.1366873150
   18        0.0826707330
   19        0.0151940810
   20        0.0179890780
   21       -0.3946154000
   22        0.0259627490
   23        0.0254981390
   24       -0.2469513860
   25       -0.0175152310
   26       -0.0194977270
   27        0.0370129580
   28       -0.0010504200
   29       -0.0131092880
   30       -0.0116825800
   31       -0.0229835990
   32       -0.0431306410
   33       -0.0010255700
   34       -0.0004249820
   35        0.0099806900
   36       -0.0230029170
   37       -0.0431399730
   38       -0.0009835570
   39       -0.0005105310
   40       -0.0099800610
 Sym= A
 Ene=          8.00000000
 Spin= Alpha
 Occup=        2.00000300
    1       -0.0573477500
    2        0.2219966730
    3        0.1463793160
    4        0.4427389660
    5       -0.0020249820
    6       -0.0958755890
    7        0.2577225470
    8        0.0001747380
    9       -0.0295154030
   10        0.0274107530
   11       -0.0113738060
   12       -0.0160369470
   13        0.0011339290
   14       -0.0014119250
   15        0.0003192500
   16        0.0062162510
   17       -0.0147420550
   18       -0.0240216560
   19       -0.0195400200
   20        0.0003944340
   21        0.0438951250
   22       -0.0306821900
   23        0.0039093480
   24        0.0452312030
   25        0.0003668110
   26       -0.0009168150
   27        0.0005500050
   28       -0.0006999270
   29       -0.0084213010
   30        0.0004189170
   31        0.3131530010
   32        0.1190025740
   33       -0.0329013730
   34        0.0006428580
   35        0.0089240150
   36       -0.0077282040
   37       -0.0098058570
   38       -0.0005034020
   39        0.0005147940
   40        0.0017613940
 Sym= A
 Ene=          9.00000000
 Spin= Alpha
 Occup=        2.00000100
    1        0.0062133660
    2       -0.0147320410
    3       -0.0240069570
    4       -0.0122930650
    5       -0.0152215910
    6       -0.0438717720
    7       -0.0167486890
    8       -0.0260151510
    9       -0.0452184420
   10       -0.0009863770
   11        0.0004334280
   12        0.0005529510
   13        0.0006089890
   14        0.0050940740
   15        0.0067199000
   16       -0.0573471680
   17        0.2219941360
   18        0.1463722390
   19        0.2830682030
   20        0.3404444450
   21        0.0958494350
   22        0.1658205050
   23        0.1973041070
   24        0.0294981660
   25        0.0056178010
   26        0.0104170390
   27       -0.0160348390
   28        0.0222495080
   29        0.0006621940
   30        0.0012860180
   31       -0.0077504150
   32       -0.0098189730
   33        0.0000719850
   34       -0.0007162270
   35       -0.0017614120
   36        0.3131537990
   37        0.1190035320
   38       -0.0206549500
   39       -0.0256166970
   40       -0.0089247100
 Sym= A
 Ene=         10.00000000
 Spin= Alpha
 Occup=        0.00000000
    1       -0.0611118240
    2        0.2745443390
    3        0.1105782630
    4       -0.0130121280
    5        0.0027738390
    6        0.6068352350
    7        0.0240751270
    8        0.0095684970
    9        0.3642011530
   10       -0.0073203940
   11       -0.0009664790
   12        0.0540471330
   13        0.0008768970
   14        0.0230998520
   15        0.0043722660
   16        0.0611394370
   17       -0.2744657940
   18       -0.1111517310
   19        0.0058110740
   20        0.0113560180
   21        0.6066183040
   22       -0.0226489150
   23       -0.0122093070
   24        0.3643546150
   25        0.0028934120
   26        0.0054545690
   27       -0.0539073830
   28        0.0033357980
   29        0.0181529890
   30        0.0149340850
   31        0.0165376280
   32       -0.0110556460
   33       -0.0073194530
   34       -0.0001152150
   35        0.0040193270
   36       -0.0164514820
   37        0.0113319850
   38        0.0043581710
   39        0.0050905300
   40        0.0036837250
 Sym= A
 Ene=         11.00000000
 Spin= Alpha
 Occup=       -0.00000000
    1        0.0810533820
    2       -0.3761753590
    3       -0.3106862150
    4       -0.5727695490
    5        0.0017048250
    6        0.1820405970
    7       -0.4455155270
    8       -0.0005021840
    9        0.1197317970
   10       -0.0717473660
   11        0.0146477820
   12        0.0198987980
   13       -0.0012652550
   14        0.0191583730
   15        0.0003682310
   16        0.0046113380
   17       -0.0172010040
   18       -0.0408065730
   19        0.0470323200
   20        0.0041655530
   21        0.0014348460
   22        0.0374999030
   23       -0.0049660800
   24       -0.0024620970
   25        0.0072457070
   26        0.0027797500
   27       -0.0062597430
   28        0.0000833740
   29        0.0000637190
   30       -0.0003333550
   31        1.0222807100
   32        0.3973248290
   33       -0.0656173780
   34        0.0015251790
   35        0.0201123740
   36       -0.0187594100
   37        0.0088166300
   38        0.0000355550
   39        0.0005074370
   40       -0.0013972930
 Sym= A
 Ene=         12.00000000
 Spin= Alpha
 Occup=       -0.00000000
    1        0.0046395330
    2       -0.0172271860
    3       -0.0411928470
    4        0.0336947610
    5        0.0334564300
    6       -0.0015852250
    7        0.0198197100
    8        0.0318698540
    9        0.0025476380
   10        0.0047532710
   11        0.0054757580
   12       -0.0063766330
   13        0.0025965830
   14        0.0000958040
   15       -0.0003420620
   16        0.0809242740
   17       -0.3753868960
   18       -0.3097283080
   19       -0.3660507680
   20       -0.4390672400
   21       -0.1817626440
   22       -0.2869516840
   23       -0.3410635440
   24       -0.1197956870
   25       -0.0224521340
   26       -0.0354061680
   27        0.0202451060
   28       -0.0500302740
   29       -0.0128831880
   30       -0.0148030020
   31       -0.0186097370
   32        0.0091828980
   33        0.0004145800
   34       -0.0003114540
   35        0.0015040500
   36        1.0232708800
   37        0.3956541710
   38       -0.0395679720
   39       -0.0495902780
   40       -0.0195370690
 Sym= A
 Ene=         13.00000000
 Spin= Alpha
 Occup=        0.00000000
    1       -0.0456942860
    2       -0.6089059400
    3        1.7160778600
    4        0.0117575070
    5       -0.7642919680
    6       -0.2130434350
    7        0.0584185840
    8        0.8867978230
    9        0.9160268440
   10       -0.3269190350
   11       -0.3386370010
   12        0.1381378310
   13        0.0025086810
   14        0.2378071610
   15       -0.3550359500
   16        0.0586238140
   17        0.0479950640
   18       -1.0055399500
   19        0.0027933260
   20       -0.0126494270
   21        0.0592093200
   22       -0.0338690430
   23       -0.0903569830
   24        0.7211511440
   25        0.1676481210
   26        0.1653463230
   27       -0.0518624200
   28       -0.0072403990
   29        0.0376122150
   30       -0.0263355930
   31        0.0160291580
   32       -0.1521087350
   33       -0.0318235250
   34       -0.0208012620
   35       -0.0331646510
   36        0.0541658570
   37       -0.1116975720
   38        0.0120333280
   39        0.0109178960
   40       -0.0106702930
 Sym= A
 Ene=         14.00000000
 Spin= Alpha
 Occup=        0.00000000
    1       -0.0783436270
    2        0.0066950990
    3        0.9591390420
    4       -0.6103557470
    5       -0.1292397350
    6       -0.2115442340
    7        1.1861707300
    8        0.1575739140
    9        0.3121180860
   10       -0.1171913230
   11       -0.3665698950
   12        0.1033429140
   13       -0.0859698130
   14       -0.6920638050
   15        0.0566043630
   16        0.0218252450
   17       -0.0172079980
   18       -0.3390149680
   19       -0.0273563680
   20       -0.0032363460
   21        0.0491717460
   22       -0.0587641200
   23       -0.0421501660
   24        0.2291987900
   25        0.0598509870
   26        0.0611670870
   27       -0.0350380730
   28        0.0058782870
   29       -0.0579750730
   30        0.0103144020
   31       -0.5624577100
   32       -0.3897921550
   33        0.0747956170
   34        0.0106772170
   35        0.0563522690
   36        0.0181945130
   37       -0.0187778590
   38        0.0013767740
   39        0.0045578310
   40        0.0068162290
 Sym= A
 Ene=         15.00000000
 Spin= Alpha
 Occup=        0.00000000
    1       -0.0699367040
    2       -1.0849477400
    3        3.0126361800
    4       -0.2665209830
    5        0.1733935500
    6       -0.3893330300
    7        0.8136601100
    8       -0.1603024580
    9        1.3055969200
   10       -0.2227212420
   11       -0.3663976240
   12       -0.1482949790
   13       -0.0046320120
   14        0.4201521850
   15        0.5115439040
   16        0.0864233330
   17        0.1087992590
   18       -1.5962172300
   19        0.0030625430
   20        0.0245892370
   21        0.0543769890
   22       -0.2415401420
   23       -0.1293220160
   24        1.0107564300
   25        0.2352060080
   26        0.2205428140
   27        0.0013541130
   28       -0.0381461580
   29        0.0865568780
   30        0.0637992980
   31       -0.3347279060
   32       -0.5617601610
   33        0.0105398670
   34        0.0157230930
   35       -0.0911272500
   36        0.1436932870
   37       -0.0493932050
   38        0.0143565730
   39        0.0125261830
   40       -0.0391512360
 Sym= A
 Ene=         16.00000000
 Spin= Alpha
 Occup=        0.00000000
    1       -0.0462013660
    2       -0.0262995640
    3        0.4494136800
    4       -0.3219107440
    5       -0.0747457110
    6        0.5601492940
    7        0.4833128000
    8        0.1101418090
    9       -0.7828839560
   10       -0.4911953940
   11       -0.4360426980
   12        0.4049848060
   13        0.0098389390
   14        0.4478637560
   15        0.1885832410
   16        0.0076326120
   17        0.1178859640
   18       -0.0843270280
   19       -0.0136332860
   20       -0.0011607970
   21       -0.0154455560
   22       -0.2202595920
   23       -0.1447964390
   24       -0.0924405630
   25        0.0716514400
   26        0.0655375630
   27       -0.0654975090
   28       -0.0123456230
   29        0.0563247960
   30        0.0260396240
   31        0.0618920880
   32       -0.2861841810
   33       -0.1371825550
   34        0.0022716010
   35        0.0112660220
   36        0.1116979340
   37        0.1268870850
   38        0.0051288790
   39        0.0040194900
   40       -0.0082821540
 Sym= A
 Ene=         17.00000000
 Spin= Alpha
 Occup=        0.00000000
    1        0.0176868540
    2       -0.3135370520
    3        0.2816209350
    4       -0.0806167000
    5       -0.1729806350
    6        0.3431202750
    7        0.1235562400
    8        0.2136303050
    9       -0.6994961950
   10       -0.5392358540
   11        0.8561143160
   12       -0.5174509490
   13       -0.1632957570
   14       -0.1480567400
   15        0.1243375130
   16       -0.0312551220
   17        0.0501572280
   18        0.4064460190
   19       -0.0196512400
   20       -0.0059964330
   21       -0.0998934240
   22        0.0323249460
   23       -0.0902688390
   24       -0.2951783420
   25       -0.0617573060
   26       -0.1010136100
   27        0.0770652310
   28        0.0010116130
   29       -0.0307177900
   30        0.0181320660
   31        0.1766202560
   32       -0.3354693730
   33       -0.0651467550
   34        0.0215593890
   35        0.0520437130
   36        0.0248019450
   37        0.0344021150
   38       -0.0103521460
   39       -0.0024050390
   40        0.0004392520
 Sym= A
 Ene=         18.00000000
 Spin= Alpha
 Occup=        0.00000000
    1        0.0448280540
    2       -1.2904364600
    3        2.4170422400
    4        0.2275047180
    5        0.3079694690
    6        0.2088239830
    7        0.3716286530
    8       -0.3969407960
    9        0.3824490690
   10        0.1926756410
   11       -0.3248673940
   12        0.4735639270
   13        0.0365743020
   14       -0.4362365300
   15       -0.3899446950
   16        0.0654550360
   17        0.1809378930
   18       -1.1369020800
   19        0.0002893210
   20        0.0027083280
   21        0.0125195340
   22        0.0892312070
   23        0.2072054560
   24        0.8970761040
   25        0.2466446400
   26        0.2582803810
   27       -0.1721379240
   28        0.0084424360
   29       -0.0144569610
   30       -0.0485449700
   31       -0.6054764860
   32       -0.5200792350
   33        0.2288807600
   34       -0.0104170090
   35       -0.0306092380
   36       -0.0539047310
   37       -0.0633021490
   38        0.0223883840
   39        0.0191782690
   40       -0.0204197590
 Sym= A
 Ene=         19.00000000
 Spin= Alpha
 Occup=        0.00000000
    1       -0.0831829680
    2       -0.0176855480
    3        0.7057332190
    4       -0.0528147260
    5       -0.0168502930
    6       -0.0504649780
    7       -0.1513491030
    8        0.0233617240
    9        0.2567383910
   10       -0.6894104340
   11       -0.1125911300
   12       -0.1465162480
   13        0.9828434620
   14       -0.0567441750
   15        0.0143039840
   16        0.0116208470
   17       -0.0200183810
   18       -0.1984544310
   19       -0.0089699160
   20       -0.0003703910
   21        0.0208604350
   22        0.0709879470
   23        0.0116053770
   24        0.1530999230
   25        0.0278843020
   26        0.0115665600
   27        0.0246034490
   28       -0.0262461150
   29       -0.0240226620
   30        0.0039143870
   31        0.2844785490
   32       -0.0188334970
   33       -0.1298911360
   34       -0.1248968550
   35        0.0523114140
   36        0.0119299980
   37       -0.0810222180
   38       -0.0029774160
   39        0.0013258000
   40        0.0063563140
 Sym= A
 Ene=         20.00000000
 Spin= Alpha
 Occup=       -0.00000000
    1       -0.3785871680
    2       -0.3289642230
    3        3.8871580800
    4        0.1069685780
    5       -0.0828291780
    6        0.0614312370
    7       -0.0350513970
    8        0.1206079870
    9        0.1847029830
   10       -1.2184653600
   11       -1.6086302500
   12       -1.3710989200
   13       -0.1271597700
   14       -0.2341478650
   15        0.2496224760
   16        0.0255634210
   17        0.0197424660
   18       -0.6426697520
   19       -0.0022389560
   20        0.0014630060
   21       -0.0128309810
   22        0.1032657900
   23       -0.0812559140
   24        0.2760085020
   25        0.0205810210
   26        0.0106577880
   27        0.2303191940
   28       -0.0112769720
   29       -0.0324301970
   30        0.0228611850
   31       -0.0038402960
   32       -0.5346565250
   33       -0.2151204640
   34        0.0211887510
   35        0.0609809130
   36        0.0627748120
   37       -0.0621089760
   38       -0.0070677800
   39       -0.0025897510
   40        0.0218427030
 Sym= A
 Ene=         21.00000000
 Spin= Alpha
 Occup=        0.00000000
    1       -0.2128190550
    2        0.1263777720
    3        1.4965357700
    4       -0.3385950310
    5        0.3710332020
    6       -0.1952006140
    7        0.0084122120
    8       -0.4898564990
    9        0.5568215650
   10       -1.3685942200
   11       -0.4280906860
   12       -0.5040480460
   13       -0.1725165630
   14        0.3783822100
   15       -0.6041857490
   16        0.0171470230
   17       -0.0653937950
   18       -0.3382932430
   19       -0.0121356770
   20       -0.0081671020
   21        0.0479672960
   22       -0.0057664510
   23        0.2835774300
   24        0.2210517070
   25        0.0240608770
   26        0.0044019990
   27        0.0875072850
   28        0.0163939450
   29        0.0246630920
   30       -0.0939368220
   31        0.5761555830
   32       -0.1090693980
   33       -0.3381729070
   34        0.0114987350
   35        0.0586576500
   36       -0.0538642220
   37       -0.0867534340
   38        0.0021360320
   39       -0.0011583680
   40        0.0214320910
 Sym= A
 Ene=         22.00000000
 Spin= Alpha
 Occup=        0.00000000
    1       -0.0434957630
    2       -0.0595794530
    3        0.5552686280
    4       -0.3179717380
    5       -0.0138504710
    6        0.2149341020
    7        1.2021934000
    8       -0.0017224770
    9       -1.0273698000
   10        0.8730148520
   11       -0.2265451780
   12       -1.0438158400
   13        0.2086021750
   14        0.0983172730
   15       -0.3154969770
   16       -0.0562128060
   17        0.0222896760
   18        0.7419990070
   19       -0.0127344950
   20       -0.0116392820
   21       -0.1340248880
   22       -0.2523666520
   23        0.0199676070
   24       -0.5987644520
   25       -0.1822122520
   26       -0.1634469790
   27        0.1680633820
   28       -0.0156209270
   29        0.0595301560
   30       -0.0497705170
   31       -0.8649574150
   32       -0.6239945840
   33        0.1436613870
   34       -0.0354781790
   35       -0.0922055040
   36        0.0462727270
   37        0.0857233480
   38       -0.0065241970
   39       -0.0234828800
   40        0.0129317500
 Sym= A
 Ene=         23.00000000
 Spin= Alpha
 Occup=        0.00000000
    1        0.0575866850
    2        0.0477511710
    3       -0.9883710980
    4       -0.0067867160
    5        0.0136606670
    6       -0.0579222210
    7       -0.0823960410
    8        0.0347735520
    9       -0.7136268530
   10        0.1584846220
   11        0.1695366610
   12       -0.0515465570
   13       -0.0000092710
   14       -0.0041615720
   15       -0.0459020450
   16       -0.0432698780
   17       -0.6042977560
   18        1.6783822600
   19       -0.5560733440
   20        0.5243839750
   21        0.2075682310
   22        0.6793561150
   23       -0.5654634830
   24       -0.9055281190
   25       -0.3213775540
   26       -0.3288995300
   27        0.1352878070
   28        0.0035284490
   29        0.1147136980
   30       -0.4147399420
   31        0.0493623990
   32       -0.1123739880
   33        0.0182495790
   34        0.0024086430
   35        0.0112898420
   36        0.0352982720
   37       -0.1352338620
   38       -0.0317746410
   39       -0.0076800910
   40        0.0312853390
 Sym= A
 Ene=         24.00000000
 Spin= Alpha
 Occup=       -0.00000000
    1        0.0251389910
    2       -0.0166639430
    3       -0.3937881530
    4       -0.0165462090
    5       -0.0169959190
    6       -0.0540549390
    7       -0.0647687860
    8       -0.0148630270
    9       -0.2710087580
   10        0.0755039270
   11        0.0641096380
   12       -0.0389337660
   13        0.0002961830
   14        0.0314142680
   15        0.0496503820
   16       -0.0805092010
   17       -0.0260358070
   18        1.0422945900
   19       -0.4965233240
   20       -0.3642362960
   21        0.2253882500
   22        0.8813545090
   23        0.7753115330
   24       -0.3739896120
   25       -0.3575924710
   26       -0.1663938060
   27        0.1125486210
   28        0.1264624230
   29        0.4232821140
   30        0.5577122570
   31        0.0166413420
   32       -0.0261803630
   33        0.0061809310
   34       -0.0018014790
   35       -0.0072967440
   36       -0.5519473310
   37       -0.3864916320
   38        0.0480063060
   39        0.0430878420
   40       -0.0526788320
 Sym= A
 Ene=         25.00000000
 Spin= Alpha
 Occup=        0.00000000
    1        0.0869938810
    2        0.1099932510
    3       -1.6057826400
    4        0.0227867440
    5       -0.0139793050
    6       -0.0548908040
    7       -0.2588404660
    8       -0.1027295480
    9       -1.0183760000
   10        0.1957855010
   11        0.2636671450
   12        0.0006499380
   13        0.0017323360
   14       -0.1063369070
   15       -0.0260462640
   16       -0.0714292560
   17       -1.0897830900
   18        3.0410361200
   19       -0.0472261170
   20       -0.3163054140
   21        0.3907496880
   22        0.4167105230
   23        0.7336519380
   24       -1.3087667800
   25       -0.3187298310
   26       -0.2838636880
   27       -0.1457737420
   28        0.0831319990
   29       -0.6566470710
   30        0.0061873840
   31        0.1449781020
   32       -0.0500454440
   33        0.0212859050