[Molden Format]
 Molden2AIM, Version 5.0.2 (10/09/2020)           Time: Tue Apr  6 00:21:31 2021

[Atoms] AU
  O      1    8        0.0000000000        0.0000000000        0.0000000000
  O      2    8        0.0000000000        0.0000000000        2.7620617201
  H      3    1        1.7632934844        0.0000000000       -0.4771921162
  H      4    1        0.0000000000        1.7632934750        3.2392538382
[GTO]
    1    0
 S    6  1.0
    0.5484672000D+04    0.1831100116D-02
    0.8252350000D+03    0.1395010088D-01
    0.1880470000D+03    0.6844510432D-01
    0.5296450000D+02    0.2327140147D+00
    0.1689757000D+02    0.4701930297D+00
    0.5799635000D+01    0.3585210226D+00
 S    3  1.0
    0.1553962000D+02   -0.1107766479D+00
    0.3599934000D+01   -0.1480255295D+00
    0.1013762000D+01    0.1130766406D+01
 S    1  1.0
    0.2700058000D+00    0.1000000000D+01
 P    3  1.0
    0.1553962000D+02    0.7087426029D-01
    0.3599934000D+01    0.3397528096D+00
    0.1013762000D+01    0.7271585926D+00
 P    1  1.0
    0.2700058000D+00    0.1000000000D+01
 D    1  1.0
    0.8000000000D+00    0.1000000000D+01

    2    0
 S    6  1.0
    0.5484672000D+04    0.1831100116D-02
    0.8252350000D+03    0.1395010088D-01
    0.1880470000D+03    0.6844510432D-01
    0.5296450000D+02    0.2327140147D+00
    0.1689757000D+02    0.4701930297D+00
    0.5799635000D+01    0.3585210226D+00
 S    3  1.0
    0.1553962000D+02   -0.1107766479D+00
    0.3599934000D+01   -0.1480255295D+00
    0.1013762000D+01    0.1130766406D+01
 S    1  1.0
    0.2700058000D+00    0.1000000000D+01
 P    3  1.0
    0.1553962000D+02    0.7087426029D-01
    0.3599934000D+01    0.3397528096D+00
    0.1013762000D+01    0.7271585926D+00
 P    1  1.0
    0.2700058000D+00    0.1000000000D+01
 D    1  1.0
    0.8000000000D+00    0.1000000000D+01

    3    0
 S    3  1.0
    0.1873114000D+02    0.3349460926D-01
    0.2825394000D+01    0.2347270649D+00
    0.6401217000D+00    0.8137572250D+00
 S    1  1.0
    0.1612778000D+00    0.1000000000D+01
 P    1  1.0
    0.1100000000D+01    0.1000000000D+01

    4    0
 S    3  1.0
    0.1873114000D+02    0.3349460926D-01
    0.2825394000D+01    0.2347270649D+00
    0.6401217000D+00    0.8137572250D+00
 S    1  1.0
    0.1612778000D+00    0.1000000000D+01
 P    1  1.0
    0.1100000000D+01    0.1000000000D+01

[MO]
 Sym= A
 Ene=          1.00000000
 Spin= Alpha
 Occup=        2.00000000
    1        1.0108395200
    2       -0.0199902840
    3       -0.0492791430
    4        0.0030608950
    5        0.0002733010
    6        0.0024133480
    7        0.0009715850
    8       -0.0001773690
    9       -0.0015563350
   10        0.0010371160
   11        0.0005061660
   12       -0.0015432820
   13        0.0000093120
   14       -0.0001331060
   15       -0.0001131920
   16        0.0007018000
   17       -0.0027912470
   18        0.0038101340
   19       -0.0000564870
   20       -0.0002312210
   21        0.0074182190
   22       -0.0001966880
   23       -0.0003434730
   24        0.0008388710
   25        0.0005139480
   26        0.0009287570
   27       -0.0014427050
   28       -0.0000038480
   29       -0.0000826660
   30        0.0003483340
   31       -0.0098835730
   32        0.0026747510
   33        0.0031503630
   34        0.0000160520
   35       -0.0005250340
   36       -0.0001542210
   37        0.0007674430
   38       -0.0000031470
   39        0.0001211700
   40        0.0001756500
 Sym= A
 Ene=          2.00000000
 Spin= Alpha
 Occup=        2.00000000
    1        0.0007018000
    2       -0.0027912470
    3        0.0038101340
    4       -0.0002312210
    5       -0.0000564870
    6       -0.0074182190
    7       -0.0003434730
    8       -0.0001966880
    9       -0.0008388710
   10        0.0009287570
   11        0.0005139480
   12       -0.0014427050
   13       -0.0000038480
   14       -0.0003483340
   15        0.0000826660
   16        1.0108395200
   17       -0.0199902840
   18       -0.0492791420
   19        0.0002733010
   20        0.0030608950
   21       -0.0024133480
   22       -0.0001773690
   23        0.0009715850
   24        0.0015563350
   25        0.0005061660
   26        0.0010371160
   27       -0.0015432820
   28        0.0000093120
   29        0.0001131920
   30        0.0001331060
   31       -0.0001542210
   32        0.0007674430
   33        0.0001211700
   34       -0.0000031470
   35       -0.0001756500
   36       -0.0098835730
   37        0.0026747510
   38        0.0000160520
   39        0.0031503630
   40        0.0005250340
 Sym= A
 Ene=          3.00000000
 Spin= Alpha
 Occup=        2.00000000
    1       -0.1148909330
    2        0.3961060520
    3        0.4652215600
    4       -0.3086761720
    5        0.2909568830
    6       -0.1555428560
    7       -0.2069403480
    8        0.2131565050
    9       -0.1122234700
   10       -0.0123489920
   11        0.0120906870
   12        0.0002583040
   13        0.0087853770
   14       -0.0080509210
   15        0.0036792930
   16        0.0091240070
   17       -0.0237083170
   18       -0.0324723300
   19        0.0182849940
   20       -0.0141416090
   21        0.0520572640
   22        0.0269079280
   23       -0.0244193970
   24        0.0521894920
   25       -0.0012260240
   26       -0.0027086320
   27        0.0039346540
   28        0.0007683810
   29        0.0069365810
   30       -0.0055085510
   31       -0.0500105410
   32       -0.0665527340
   33       -0.0069292440
   34        0.0089334590
   35       -0.0043366410
   36       -0.0109121200
   37        0.0061182790
   38        0.0009073520
   39       -0.0003422040
   40        0.0012784190
 Sym= A
 Ene=          4.00000000
 Spin= Alpha
 Occup=        1.99999800
    1       -0.0573637340
    2        0.2020906980
    3        0.2268054930
    4       -0.1471443990
    5       -0.5985995430
    6       -0.0636133370
    7       -0.0978241980
    8       -0.4367359750
    9       -0.0505520800
   10       -0.0043374570
   11        0.0031557600
   12        0.0011816970
   13       -0.0210227600
   14       -0.0036337800
   15       -0.0078787470
   16        0.0075056860
   17       -0.0163045010
   18       -0.0426529320
   19        0.0087610890
   20        0.0161589270
   21        0.0199003080
   22        0.0131842780
   23        0.0261790870
   24        0.0221120890
   25       -0.0023857540
   26        0.0007602050
   27        0.0016255480
   28       -0.0003104110
   29        0.0033141960
   30        0.0157090050
   31       -0.0222251680
   32       -0.0391356990
   33       -0.0032701920
   34       -0.0188269940
   35       -0.0015275980
   36        0.0282892480
   37        0.0307226050
   38        0.0004796500
   39       -0.0003627940
   40        0.0013118090
 Sym= A
 Ene=          5.00000000
 Spin= Alpha
 Occup=        2.00000000
    1        0.0091240070
    2       -0.0237083160
    3       -0.0324723290
    4       -0.0141416090
    5        0.0182849940
    6       -0.0520572640
    7       -0.0244193970
    8        0.0269079270
    9       -0.0521894920
   10       -0.0027086320
   11       -0.0012260240
   12        0.0039346540
   13        0.0007683810
   14        0.0055085510
   15       -0.0069365810
   16       -0.1148909330
   17        0.3961060520
   18        0.4652215600
   19        0.2909568840
   20       -0.3086761720
   21        0.1555428560
   22        0.2131565060
   23       -0.2069403480
   24        0.1122234700
   25        0.0120906870
   26       -0.0123489920
   27        0.0002583040
   28        0.0087853770
   29       -0.0036792930
   30        0.0080509210
   31       -0.0109121200
   32        0.0061182780
   33       -0.0003422040
   34        0.0009073520
   35       -0.0012784190
   36       -0.0500105410
   37       -0.0665527340
   38        0.0089334600
   39       -0.0069292440
   40        0.0043366410
 Sym= A
 Ene=          6.00000000
 Spin= Alpha
 Occup=        1.99999800
    1        0.0075056860
    2       -0.0163045010
    3       -0.0426529320
    4        0.0161589270
    5        0.0087610890
    6       -0.0199003080
    7        0.0261790870
    8        0.0131842780
    9       -0.0221120890
   10        0.0007602050
   11       -0.0023857540
   12        0.0016255480
   13       -0.0003104110
   14       -0.0157090050
   15       -0.0033141960
   16       -0.0573637350
   17        0.2020906990
   18        0.2268054940
   19       -0.5985995430
   20       -0.1471444000
   21        0.0636133370
   22       -0.4367359750
   23       -0.0978241980
   24        0.0505520810
   25        0.0031557600
   26       -0.0043374570
   27        0.0011816970
   28       -0.0210227600
   29        0.0078787470
   30        0.0036337800
   31        0.0282892480
   32        0.0307226050
   33       -0.0003627940
   34        0.0004796500
   35       -0.0013118090
   36       -0.0222251690
   37       -0.0391356990
   38       -0.0188269940
   39       -0.0032701920
   40        0.0015275980
 Sym= A
 Ene=          7.00000000
 Spin= Alpha
 Occup=        2.00000100
    1       -0.0321037600
    2        0.1365498750
    3        0.0826118270
    4        0.0230601630
    5        0.0006818980
    6        0.3948988870
    7        0.0331951170
    8        0.0050942600
    9        0.2473907070
   10       -0.0202957610
   11       -0.0167382040
   12        0.0370339650
   13        0.0003023570
   14        0.0154660170
   15        0.0034365240
   16       -0.0321037600
   17        0.1365498750
   18        0.0826118270
   19        0.0006818980
   20        0.0230601630
   21       -0.3948988870
   22        0.0050942600
   23        0.0331951170
   24       -0.2473907070
   25       -0.0167382040
   26       -0.0202957610
   27        0.0370339650
   28        0.0003023570
   29       -0.0034365240
   30       -0.0154660170
   31       -0.0204724280
   32       -0.0441802990
   33       -0.0010988700
   34       -0.0004589300
   35        0.0095321090
   36       -0.0204724280
   37       -0.0441802990
   38       -0.0004589300
   39       -0.0010988700
   40       -0.0095321090
 Sym= A
 Ene=          8.00000000
 Spin= Alpha
 Occup=        2.00000000
    1       -0.0583964070
    2        0.2258278400
    3        0.1504300560
    4        0.4438740050
    5        0.0020113730
    6       -0.0934253660
    7        0.2590503970
    8        0.0022939560
    9       -0.0298490770
   10        0.0265847270
   11       -0.0107823920
   12       -0.0158023340
   13        0.0015661900
   14       -0.0016351140
   15       -0.0002654450
   16        0.0069996400
   17       -0.0154156020
   18       -0.0317843320
   19       -0.0195658080
   20       -0.0034570180
   21        0.0417633010
   22       -0.0340414480
   23       -0.0020284460
   24        0.0438597070
   25        0.0006610720
   26       -0.0011788740
   27        0.0005178000
   28       -0.0005545830
   29       -0.0086381960
   30        0.0012788220
   31        0.3114998260
   32        0.1133064130
   33       -0.0332693400
   34        0.0005891300
   35        0.0082088670
   36        0.0028964030
   37       -0.0015234370
   38       -0.0009945490
   39       -0.0000817530
   40        0.0017288980
 Sym= A
 Ene=          9.00000000
 Spin= Alpha
 Occup=        2.00000000
    1        0.0069996400
    2       -0.0154156020
    3       -0.0317843320
    4       -0.0034570180
    5       -0.0195658080
    6       -0.0417633010
    7       -0.0020284460
    8       -0.0340414480
    9       -0.0438597070
   10       -0.0011788740
   11        0.0006610720
   12        0.0005178000
   13       -0.0005545830
   14       -0.0012788220
   15        0.0086381960
   16       -0.0583964070
   17        0.2258278410
   18        0.1504300560
   19        0.0020113730
   20        0.4438740050
   21        0.0934253660
   22        0.0022939560
   23        0.2590503970
   24        0.0298490770
   25       -0.0107823920
   26        0.0265847270
   27       -0.0158023340
   28        0.0015661900
   29        0.0002654450
   30        0.0016351140
   31        0.0028964030
   32       -0.0015234370
   33       -0.0000817530
   34       -0.0009945500
   35       -0.0017288980
   36        0.3114998260
   37        0.1133064130
   38        0.0005891300
   39       -0.0332693400
   40       -0.0082088670
 Sym= A
 Ene=         10.00000000
 Spin= Alpha
 Occup=       -0.00000000
    1       -0.0609363470
    2        0.2753471750
    3        0.1057881160
    4       -0.0142036280
    5        0.0042345970
    6        0.6069102730
    7        0.0137295910
    8        0.0126391350
    9        0.3646800150
   10       -0.0081437280
   11        0.0003214390
   12        0.0550667880
   13        0.0001097360
   14        0.0195083560
   15        0.0057822570
   16        0.0609363480
   17       -0.2753471750
   18       -0.1057881230
   19       -0.0042345970
   20        0.0142036260
   21        0.6069102730
   22       -0.0126391350
   23       -0.0137295940
   24        0.3646800140
   25       -0.0003214370
   26        0.0081437270
   27       -0.0550667860
   28       -0.0001097360
   29        0.0057822570
   30        0.0195083550
   31        0.0214551600
   32       -0.0085664850
   33       -0.0071621860
   34       -0.0000686120
   35        0.0046252190
   36       -0.0214551570
   37        0.0085664870
   38        0.0000686120
   39        0.0071621820
   40        0.0046252180
 Sym= A
 Ene=         11.00000000
 Spin= Alpha
 Occup=       -0.00000000
    1        0.0810733910
    2       -0.3774678650
    3       -0.3068183370
    4       -0.5712641590
    5       -0.0014741160
    6        0.1777800320
    7       -0.4445303020
    8       -0.0017926400
    9        0.1205615660
   10       -0.0720250030
   11        0.0134506930
   12        0.0190611360
   13       -0.0014606660
   14        0.0196223710
   15        0.0006449160
   16        0.0038803790
   17       -0.0190701980
   18       -0.0320369190
   19        0.0447051010
   20        0.0085881870
   21        0.0007783740
   22        0.0431708140
   23        0.0014053270
   24       -0.0001105720
   25        0.0056872790
   26        0.0025553350
   27       -0.0073897210
   28        0.0011850000
   29        0.0002730580
   30       -0.0003596550
   31        1.0293596600
   32        0.3893131190
   33       -0.0669528150
   34        0.0016042790
   35        0.0189194840
   36       -0.0146322940
   37        0.0040415090
   38       -0.0000913990
   39        0.0008221490
   40       -0.0006909550
 Sym= A
 Ene=         12.00000000
 Spin= Alpha
 Occup=       -0.00000000
    1        0.0038803780
    2       -0.0190702000
    3       -0.0320368980
    4        0.0085881880
    5        0.0447051010
    6       -0.0007783730
    7        0.0014053270
    8        0.0431708130
    9        0.0001105850
   10        0.0025553320
   11        0.0056872750
   12       -0.0073897200
   13        0.0011850000
   14        0.0003596550
   15       -0.0002730580
   16        0.0810733930
   17       -0.3774678570
   18       -0.3068183720
   19       -0.0014741160
   20       -0.5712641580
   21       -0.1777800320
   22       -0.0017926400
   23       -0.4445302990
   24       -0.1205615520
   25        0.0134506970
   26       -0.0720249840
   27        0.0190611350
   28       -0.0014606660
   29       -0.0006449160
   30       -0.0196223700
   31       -0.0146322950
   32        0.0040415090
   33        0.0008221500
   34       -0.0000914000
   35        0.0006909540
   36        1.0293596500
   37        0.3893131190
   38        0.0016042790
   39       -0.0669528120
   40       -0.0189194840
 Sym= A
 Ene=         13.00000000
 Spin= Alpha
 Occup=       -0.00000000
    1       -0.0396063140
    2       -0.7741278170
    3        1.9607547100
    4        0.2391204240
    5       -0.6919124000
    6       -0.2319575450
    7       -0.3165883700
    8        0.8105396280
    9        1.1289294900
   10       -0.3693810310
   11       -0.3892708450
   12        0.1886425080
   13        0.0576717300
   14        0.2956260290
   15       -0.2239171080
   16        0.0699967790
   17        0.0576611460
   18       -1.1952269200
   19        0.0080823860
   20       -0.0082738320
   21        0.0706308310
   22        0.0074498970
   23       -0.0748601080
   24        0.8921628860
   25        0.2041042060
   26        0.1948114800
   27       -0.0696039810
   28       -0.0024126220
   29        0.0359576590
   30       -0.0078375050
   31        0.1322800490
   32       -0.0648689560
   33       -0.0349802810
   34       -0.0234411530
   35       -0.0412437380
   36        0.0571486450
   37       -0.1697711260
   38        0.0020669000
   39        0.0225481960
   40       -0.0111692680
 Sym= A
 Ene=         14.00000000
 Spin= Alpha
 Occup=       -0.00000000
    1        0.0481727250
    2       -0.3139408340
    3        0.0019514810
    4        0.4509622460
    5        0.4030706630
    6        0.1121404360
    7       -0.8562652180
    8       -0.4651086120
    9        0.0777666660
   10       -0.0932296620
   11        0.2466141490
   12       -0.0578787970
   13        0.0178012300
   14        0.7160706950
   15        0.2001417160
   16        0.0053551420
   17        0.0407215790
   18       -0.1322189360
   19        0.0193919520
   20        0.0112035580
   21       -0.0227583990
   22        0.0080302500
   23        0.0580662140
   24        0.1027455990
   25        0.0259916430
   26        0.0105343230
   27        0.0096817460
   28       -0.0023731360
   29        0.0690825590
   30        0.0182884580
   31        0.4731150830
   32        0.1943998970
   33       -0.0865426700
   34        0.0086968380
   35       -0.0615397700
   36       -0.0037104770
   37       -0.0145173950
   38        0.0043206480
   39        0.0024313720
   40       -0.0098927390
 Sym= A
 Ene=         15.00000000
 Spin= Alpha
 Occup=       -0.00000000
    1       -0.0802003650
    2       -0.9453108980
    3        2.8749123800
    4       -0.2967207010
    5        0.0563625170
    6       -0.4761476330
    7        0.8965047870
    8       -0.0111087260
    9        1.3242195800
   10       -0.1513620520
   11       -0.3738522000
   12       -0.1956142020
   13       -0.0848881190
   14       -0.0738294200
   15        0.6447956930
   16        0.0784282250
   17        0.0722320270
   18       -1.4484133100
   19       -0.0142984260
   20        0.0255553010
   21        0.0616623110
   22       -0.1154756350
   23       -0.1702317810
   24        0.9561530890
   25        0.2267402840
   26        0.1672394840
   27        0.0091704120
   28        0.0016163950
   29        0.0270124640
   30        0.0860570950
   31       -0.4908915690
   32       -0.5484336170
   33        0.0698383290
   34        0.0280301850
   35       -0.0491396370
   36        0.1169299580
   37       -0.0916277730
   38        0.0017961110
   39        0.0182965570
   40       -0.0371255370
 Sym= A
 Ene=         16.00000000
 Spin= Alpha
 Occup=       -0.00000000
    1       -0.0632761890
    2       -0.2065526640
    3        1.0102851000
    4       -0.2963759020
    5       -0.1460141480
    6        0.4850485660
    7        0.4954081230
    8        0.2115940460
    9       -0.4945495330
   10       -0.5629190750
   11       -0.5728914830
   12        0.4494136210
   13       -0.0396738510
   14        0.3157286160
   15        0.3873799120
   16        0.0247331730
   17        0.1306100460
   18       -0.3816538250
   19       -0.0123501990
   20        0.0044390930
   21        0.0052781840
   22       -0.1232600780
   23       -0.2133040650
   24        0.1392918770
   25        0.1305843060
   26        0.1057254890
   27       -0.0856652990
   28        0.0000538170
   29        0.0435419900
   30        0.0557166990
   31        0.0036282810
   32       -0.3345893920
   33       -0.1169331120
   34        0.0128788560
   35        0.0161854580
   36        0.1049825170
   37        0.0829360450
   38        0.0031098520
   39        0.0126399590
   40       -0.0113071830
 Sym= A
 Ene=         17.00000000
 Spin= Alpha
 Occup=       -0.00000000
    1        0.0322700380
    2       -0.1604200710
    3       -0.1854837310
    4        0.0127048340
    5       -0.3082052400
    6        0.3993750900
    7        0.0211204890
    8        0.3842258990
    9       -0.9787587220
   10       -0.2780895490
   11        0.8563760400
   12       -0.6335584050
   13       -0.0698471790
   14       -0.1815406550
   15        0.1945528950
   16       -0.0493227940
   17        0.0299666820
   18        0.7225741000
   19       -0.0109585180
   20       -0.0121768760
   21       -0.1247517880
   22        0.0657197190
   23       -0.1692385500
   24       -0.5214843010
   25       -0.1154740900
   26       -0.1686214530
   27        0.1108191580
   28        0.0027712100
   29       -0.0318777070
   30        0.0249905500
   31        0.1156552800
   32       -0.2679132410
   33       -0.0296241230
   34        0.0095289950
   35        0.0433625410
   36        0.0739649600
   37        0.0256670960
   38       -0.0033199050
   39       -0.0186520990
   40        0.0020229370
 Sym= A
 Ene=         18.00000000
 Spin= Alpha
 Occup=        0.00000000
    1       -0.1751126900
    2       -0.2447291180
    3        2.0268149600
    4       -0.2041633010
    5        0.0422750230
    6        0.0757309730
    7        0.6745379270
    8       -0.0754862010
    9       -0.2350051930
   10       -0.1501076730
   11       -0.7657562270
   12       -0.9743078640
   13       -0.7640885720
   14        0.1928072110
   15       -0.2768517560
   16       -0.0124987700
   17        0.0025597330
   18        0.0410671720
   19       -0.0052772680
   20       -0.0155850200
   21       -0.0536989680
   22       -0.1226466630
   23        0.1197388710
   24       -0.0375671800
   25       -0.0626938000
   26       -0.0468813640
   27        0.1340436490
   28        0.0186261480
   29        0.0546767770
   30       -0.0478608690
   31       -0.3709013940
   32       -0.5460030830
   33       -0.0517752430
   34        0.0906590730
   35       -0.0401558230
   36       -0.0212251370
   37       -0.0564908950
   38       -0.0002188440
   39       -0.0058925680
   40        0.0212282070
 Sym= A
 Ene=         19.00000000
 Spin= Alpha
 Occup=        0.00000000
    1       -0.3894028860
    2       -0.1865246320
    3        3.6643846800
    4       -0.2373774700
    5        0.1049168720
    6       -0.0398668910
    7        0.2377007260
    8       -0.1324777220
    9        0.3083621150
   10       -1.6054172300
   11       -1.2912899000
   12       -1.3752535300
   13        0.5076589330
   14        0.0567797620
   15       -0.1396247850
   16        0.0159489610
   17       -0.0335969280
   18       -0.4645355430
   19       -0.0122303860
   20       -0.0093854010
   21       -0.0010110380
   22        0.0046871490
   23        0.1143308280
   24        0.2487497680
   25       -0.0021475620
   26       -0.0250539850
   27        0.2166814710
   28       -0.0122544200
   29        0.0065815670
   30       -0.0351430200
   31        0.2279212100
   32       -0.5624267360
   33       -0.3348653320
   34       -0.0676367610
   35        0.0697558390
   36        0.0284999710
   37       -0.1502007000
   38        0.0003017990
   39       -0.0041133760
   40        0.0371488690
 Sym= A
 Ene=         20.00000000
 Spin= Alpha
 Occup=       -0.00000000
    1       -0.0443735310
    2       -0.6795677120
    3        1.8412255900
    4        0.5135815740
    5        0.0718746810
    6        0.2316523240
    7       -0.2170556590
    8       -0.0687535800
    9       -0.0393545460
   10        0.2145326100
   11       -0.7311848920
   12       -0.0901512110
   13       -0.0664219100
   14       -0.7269635140
   15        0.1663386770
   16        0.0315018040
   17        0.1100954560
   18       -0.5850089800
   19        0.0093456100
   20        0.0078598000
   21       -0.0150327850
   22        0.2019858010
   23       -0.0374968380
   24        0.3820834050
   25        0.1046437040
   26        0.1067068310
   27       -0.0176592600
   28        0.0036218850
   29       -0.0727406700
   30        0.0230849780
   31       -0.4888268430
   32       -0.2632301980
   33        0.1899418030
   34        0.0136894480
   35        0.0133333860
   36        0.0412178890
   37       -0.0146463170
   38       -0.0064920190
   39        0.0123092490
   40       -0.0147704120
 Sym= A
 Ene=         21.00000000
 Spin= Alpha
 Occup=       -0.00000000
    1       -0.0642052540
    2       -0.2605665630
    3        1.0442169000
    4        0.0261134840
    5        0.2528939260
    6       -0.1581135780
    7       -0.5906609630
    8       -0.3229428180
    9        0.9913641110
   10       -1.3607860300
   11        0.0314123800
   12        0.5328503110
   13       -0.3931373540
   14       -0.1349950320
   15       -0.2114018270
   16        0.0599083460
   17        0.0078297690
   18       -0.9219795340
   19       -0.0074741930
   20        0.0002775910
   21        0.1072025240
   22        0.1462846400
   23        0.1927973680
   24        0.7118926630
   25        0.1853613140
   26        0.1723952780
   27       -0.1072235960
   28        0.0117127170
   29       -0.0576260240
   30       -0.0301845520
   31        0.7166302630
   32        0.1532460860
   33       -0.2116508880
   34        0.0480969450
   35        0.1076231660
   36       -0.0387943560
   37       -0.1275039640
   38       -0.0068887300
   39        0.0216171060
   40       -0.0007015340
 Sym= A
 Ene=         22.00000000
 Spin= Alpha
 Occup=        0.00000000
    1        0.1106927790
    2       -1.0761498900
    3        1.4194711500
    4       -0.1890029100
    5        0.2571845190
    6        0.1840305390
    7        1.0331544000
    8       -0.3490184070
    9        0.0368165390
   10        0.5460444420
   11        0.2110842140
   12        0.3851714680
   13        0.2693300590
   14       -0.0697179010
   15       -0.5176148260
   16        0.0306270050
   17        0.1439481100
   18       -0.5658510430
   19       -0.0148522120
   20       -0.0041580100
   21       -0.0236809270
   22       -0.1407105130
   23        0.2481436200
   24        0.5478712370
   25        0.1407192330
   26        0.1716233930
   27       -0.1541492840
   28       -0.0081446770
   29        0.0338681110
   30       -0.0573493010
   31       -0.7393860610
   32       -0.6202137610
   33        0.2317877510
   34       -0.0440515120
   35       -0.0739518660
   36       -0.0851641900
   37       -0.0469532230
   38        0.0048709260
   39        0.0233239850
   40       -0.0217564880
 Sym= A
 Ene=         23.00000000
 Spin= Alpha
 Occup=       -0.00000000
    1        0.0699967730
    2        0.0576611510
    3       -1.1952268300
    4       -0.0082738240
    5        0.0080823870
    6       -0.0706308270
    7       -0.0748600920
    8        0.0074498990
    9       -0.8921628480
   10        0.1948114840
   11        0.2041041860
   12       -0.0696039890
   13       -0.0024126230
   14        0.0078375010
   15       -0.0359576610
   16       -0.0396063100
   17       -0.7741277730
   18        1.9607545800
   19       -0.6919124070
   20        0.2391204420
   21        0.2319575350
   22        0.8105396330
   23       -0.3165883970
   24       -1.1289294400
   25       -0.3892708170
   26       -0.3693809940
   27        0.1886424900
   28        0.0576717300
   29        0.2239171180
   30       -0.2956260340
   31        0.0571486230
   32       -0.1697711320
   33        0.0225482210
   34        0.0020669010
   35        0.0111692650
   36        0.1322800530
   37       -0.0648689390
   38       -0.0234411520
   39       -0.0349802650
   40        0.0412437380
 Sym= A
 Ene=         24.00000000
 Spin= Alpha
 Occup=       -0.00000000
    1        0.0053551400
    2        0.0407215760
    3       -0.1322188990
    4        0.0112035590
    5        0.0193919530
    6        0.0227583990
    7        0.0580662150
    8        0.0080302520
    9       -0.1027455760
   10        0.0105343180
   11        0.0259916360
   12        0.0096817440
   13       -0.0023731360
   14       -0.0182884590
   15       -0.0690825610
   16        0.0481727300
   17       -0.3139408070
   18        0.0019513820
   19        0.4030706710
   20        0.4509622540
   21       -0.1121404400
   22       -0.4651086210
   23       -0.8562652340
   24       -0.0777666400
   25        0.2466141570
   26       -0.0932296350
   27       -0.0578787770
   28        0.0178012290
   29       -0.2001417150
   30       -0.7160706880
   31       -0.0037104800
   32       -0.0145173910
   33        0.0024313730
   34        0.0043206470
   35        0.0098927400
   36        0.4731150850
   37        0.1943999150
   38        0.0086968380
   39       -0.0865426660
   40        0.0615397670
 Sym= A
 Ene=         25.00000000
 Spin= Alpha
 Occup=       -0.00000000
    1        0.0784282270
    2        0.0722320480
    3       -1.4484133600
    4        0.0255553100
    5       -0.0142984250
    6       -0.0616623140
    7       -0.1702317850
    8       -0.1154756400
    9       -0.9561531300
   10        0.1672395070
   11        0.2267402940
   12        0.0091703930
   13        0.0016163940
   14       -0.0860571080
   15       -0.0270124680
   16       -0.0802003570
   17       -0.9453109090
   18        2.8749123200
   19        0.0563624940
   20       -0.2967207070
   21        0.4761476300
   22       -0.0111086970
   23        0.8965047550
   24       -1.3242196300
   25       -0.3738521790
   26       -0.1513620560
   27       -0.1956141370
   28       -0.0848881190
   29       -0.6447957070
   30        0.0738293800
   31        0.1169299490
   32       -0.0916277780
   33        0.0182965800