[Molden Format]
 Molden2AIM, Version 5.0.2 (10/09/2020)           Time: Tue Apr  6 00:21:31 2021

[Atoms] AU
  O      1    8        0.0000000000        0.0000000000        0.0000000000
  O      2    8        0.0000000000        0.0000000000        2.7620617201
  H      3    1        1.7632934844        0.0000000000       -0.4771921162
  H      4    1        1.7365050933        0.3061926938        3.2392538382
[GTO]
    1    0
 S    6  1.0
    0.5484672000D+04    0.1831100116D-02
    0.8252350000D+03    0.1395010088D-01
    0.1880470000D+03    0.6844510432D-01
    0.5296450000D+02    0.2327140147D+00
    0.1689757000D+02    0.4701930297D+00
    0.5799635000D+01    0.3585210226D+00
 S    3  1.0
    0.1553962000D+02   -0.1107766479D+00
    0.3599934000D+01   -0.1480255295D+00
    0.1013762000D+01    0.1130766406D+01
 S    1  1.0
    0.2700058000D+00    0.1000000000D+01
 P    3  1.0
    0.1553962000D+02    0.7087426029D-01
    0.3599934000D+01    0.3397528096D+00
    0.1013762000D+01    0.7271585926D+00
 P    1  1.0
    0.2700058000D+00    0.1000000000D+01
 D    1  1.0
    0.8000000000D+00    0.1000000000D+01

    2    0
 S    6  1.0
    0.5484672000D+04    0.1831100116D-02
    0.8252350000D+03    0.1395010088D-01
    0.1880470000D+03    0.6844510432D-01
    0.5296450000D+02    0.2327140147D+00
    0.1689757000D+02    0.4701930297D+00
    0.5799635000D+01    0.3585210226D+00
 S    3  1.0
    0.1553962000D+02   -0.1107766479D+00
    0.3599934000D+01   -0.1480255295D+00
    0.1013762000D+01    0.1130766406D+01
 S    1  1.0
    0.2700058000D+00    0.1000000000D+01
 P    3  1.0
    0.1553962000D+02    0.7087426029D-01
    0.3599934000D+01    0.3397528096D+00
    0.1013762000D+01    0.7271585926D+00
 P    1  1.0
    0.2700058000D+00    0.1000000000D+01
 D    1  1.0
    0.8000000000D+00    0.1000000000D+01

    3    0
 S    3  1.0
    0.1873114000D+02    0.3349460926D-01
    0.2825394000D+01    0.2347270649D+00
    0.6401217000D+00    0.8137572250D+00
 S    1  1.0
    0.1612778000D+00    0.1000000000D+01
 P    1  1.0
    0.1100000000D+01    0.1000000000D+01

    4    0
 S    3  1.0
    0.1873114000D+02    0.3349460926D-01
    0.2825394000D+01    0.2347270649D+00
    0.6401217000D+00    0.8137572250D+00
 S    1  1.0
    0.1612778000D+00    0.1000000000D+01
 P    1  1.0
    0.1100000000D+01    0.1000000000D+01

[MO]
 Sym= A
 Ene=          1.00000000
 Spin= Alpha
 Occup=        2.00000100
    1        1.0108937900
    2       -0.0202213680
    3       -0.0494495470
    4        0.0032413010
    5        0.0000320640
    6        0.0023815850
    7        0.0007390090
    8       -0.0000305530
    9       -0.0015122400
   10        0.0009254070
   11        0.0006294760
   12       -0.0015548830
   13       -0.0000232320
   14       -0.0002296010
   15       -0.0000203750
   16        0.0006735840
   17       -0.0028629520
   18        0.0043484890
   19       -0.0002577470
   20       -0.0000381760
   21        0.0074093410
   22       -0.0001908400
   23       -0.0000010800
   24        0.0008951420
   25        0.0008931910
   26        0.0005896500
   27       -0.0014828400
   28        0.0000815700
   29        0.0002505490
   30        0.0000590190
   31       -0.0098394080
   32        0.0027893640
   33        0.0031351130
   34        0.0000003130
   35       -0.0005767420
   36       -0.0003162010
   37        0.0002102990
   38        0.0001562960
   39        0.0000310690
   40        0.0002269860
 Sym= A
 Ene=          2.00000000
 Spin= Alpha
 Occup=        2.00000100
    1        0.0006736130
    2       -0.0028630200
    3        0.0043483590
    4       -0.0002602390
    5       -0.0000070700
    6       -0.0074093030
    7       -0.0001884900
    8       -0.0000321990
    9       -0.0008951490
   10        0.0009082570
   11        0.0005745700
   12       -0.0014828270
   13       -0.0000159310
   14       -0.0002571920
   15        0.0000148390
   16        1.0108935900
   17       -0.0202207200
   18       -0.0494488830
   19        0.0031977040
   20        0.0005303580
   21       -0.0023814580
   22        0.0007223930
   23        0.0001584910
   24        0.0015123170
   25        0.0009093910
   26        0.0006454920
   27       -0.0015548840
   28        0.0000801100
   29        0.0002291080
   30        0.0000201640
   31       -0.0003161820
   32        0.0002103250
   33        0.0001591960
   34       -0.0000036540
   35       -0.0002269860
   36       -0.0098392660
   37        0.0027893420
   38        0.0030870360
   39        0.0005442370
   40        0.0005767380
 Sym= A
 Ene=          3.00000000
 Spin= Alpha
 Occup=        2.00000200
    1       -0.0325077940
    2        0.1123012850
    3        0.1326062050
    4       -0.0853411140
    5        0.6483275020
    6       -0.0431720970
    7       -0.0556667570
    8        0.4681993610
    9       -0.0317434550
   10       -0.0034125360
   11        0.0033416640
   12        0.0000708730
   13        0.0237080550
   14       -0.0021459980
   15        0.0065429130
   16        0.0027856050
   17       -0.0067478210
   18       -0.0119058330
   19        0.0043936920
   20       -0.0335561310
   21        0.0141884990
   22        0.0050558410
   23       -0.0533593220
   24        0.0141428310
   25       -0.0007521870
   26       -0.0003995570
   27        0.0011517450
   28       -0.0005723790
   29        0.0022403660
   30       -0.0135650640
   31       -0.0142758290
   32       -0.0214979140
   33       -0.0019932130
   34        0.0212609700
   35       -0.0014121370
   36       -0.0001527860
   37        0.0047021290
   38       -0.0000326090
   39       -0.0016258950
   40        0.0003658520
 Sym= A
 Ene=          4.00000000
 Spin= Alpha
 Occup=        2.00000000
    1       -0.1248322010
    2        0.4344906340
    3        0.5030854560
    4       -0.3273709620
    5       -0.1687808350
    6       -0.1578898530
    7       -0.2181577730
    8       -0.1220793320
    9       -0.1183541780
   10       -0.0124516980
   11        0.0114165780
   12        0.0010351190
   13       -0.0061604150
   14       -0.0095161170
   15       -0.0019055780
   16        0.0123854200
   17       -0.0294157460
   18       -0.0577530930
   19        0.0078563320
   20        0.0065701970
   21        0.0507585550
   22        0.0089417520
   23        0.0102794240
   24        0.0527100620
   25       -0.0022393340
   26       -0.0016197600
   27        0.0038590980
   28        0.0001811470
   29        0.0104034670
   30        0.0040696070
   31       -0.0515490480
   32       -0.0814437120
   33       -0.0076944190
   34       -0.0055994310
   35       -0.0050492090
   36        0.0197670340
   37        0.0296180650
   38       -0.0007807360
   39        0.0000937790
   40        0.0024720120
 Sym= A
 Ene=          5.00000000
 Spin= Alpha
 Occup=        2.00000000
    1        0.0028027810
    2       -0.0067885110
    3       -0.0119867100
    4       -0.0014850110
    5        0.0338007310
    6       -0.0142614860
    7       -0.0042705680
    8        0.0534135260
    9       -0.0142180430
   10       -0.0009140110
   11       -0.0002429760
   12        0.0011569880
   13        0.0004672530
   14        0.0001345020
   15       -0.0137451610
   16       -0.0326842200
   17        0.1129129510
   18        0.1333101570
   19        0.0280650060
   20       -0.6531415550
   21        0.0433956750
   22        0.0261631000
   23       -0.4706361760
   24        0.0319093340
   25        0.0037957000
   26       -0.0038673380
   27        0.0000716380
   28       -0.0236096700
   29        0.0009904520
   30        0.0068165800
   31       -0.0001236350
   32        0.0047437140
   33       -0.0003153140
   34        0.0015947570
   35       -0.0003692630
   36       -0.0143349790
   37       -0.0216062110
   38        0.0017162870
   39       -0.0212787470
   40        0.0014187750
 Sym= A
 Ene=          6.00000000
 Spin= Alpha
 Occup=        2.00000100
    1        0.0123816390
    2       -0.0294068340
    3       -0.0577372030
    4        0.0088815220
    5       -0.0051530400
    6       -0.0507386480
    7        0.0105972510
    8       -0.0086453250
    9       -0.0526901210
   10       -0.0021654050
   11       -0.0016920410
   12        0.0038574500
   13       -0.0002932440
   14       -0.0109527740
   15        0.0022198990
   16       -0.1247877370
   17        0.4343334490
   18        0.5029004170
   19       -0.3517461120
   20        0.1102762320
   21        0.1578295360
   22       -0.2360805060
   23        0.0829948660
   24        0.1183099650
   25       -0.0135618120
   26        0.0125267500
   27        0.0010350630
   28        0.0011092210
   29        0.0097007830
   30       -0.0002334120
   31        0.0197678890
   32        0.0296119320
   33       -0.0007519280
   34       -0.0002305710
   35       -0.0024714760
   36       -0.0515304480
   37       -0.0814143350
   38       -0.0085525930
   39        0.0042076160
   40        0.0050472850
 Sym= A
 Ene=          7.00000000
 Spin= Alpha
 Occup=        2.00000100
    1       -0.0321117900
    2        0.1370086870
    3        0.0821399230
    4        0.0236682630
    5       -0.0000758990
    6        0.3943912450
    7        0.0372713360
    8        0.0007159830
    9        0.2467795500
   10       -0.0189127410
   11       -0.0181908560
   12        0.0371036000
   13        0.0002911780
   14        0.0183871370
   15        0.0005660760
   16       -0.0321115870
   17        0.1370068590
   18        0.0821387870
   19        0.0232914510
   20        0.0041838530
   21       -0.3943916460
   22        0.0368266380
   23        0.0057661260
   24       -0.2467793560
   25       -0.0188045570
   26       -0.0182991910
   27        0.0371037500
   28       -0.0004160850
   29       -0.0182064520
   30       -0.0026348190
   31       -0.0243853800
   32       -0.0419462900
   33       -0.0009585870
   34       -0.0000991670
   35        0.0104021530
   36       -0.0243883900
   37       -0.0419475840
   38       -0.0009612220
   39       -0.0000691460
   40       -0.0104020540
 Sym= A
 Ene=          8.00000000
 Spin= Alpha
 Occup=        2.00000100
    1       -0.0570495210
    2        0.2207004590
    3        0.1453931660
    4        0.4408508240
    5       -0.0009590300
    6       -0.0972488270
    7        0.2571111730
    8       -0.0001968510
    9       -0.0293145140
   10        0.0277997250
   11       -0.0117022170
   12       -0.0160975090
   13        0.0002337680
   14       -0.0009002770
   15        0.0001432530
   16        0.0059375140
   17       -0.0144011310
   18       -0.0214343720
   19       -0.0180759910
   20        0.0003702350
   21        0.0450283330
   22       -0.0265324150
   23        0.0013294080
   24        0.0459114210
   25       -0.0004417550
   26       -0.0002697910
   27        0.0007115470
   28       -0.0003100150
   29       -0.0086842330
   30        0.0000415460
   31        0.3140726810
   32        0.1217710010
   33       -0.0325794620
   34        0.0001761070
   35        0.0096509470
   36       -0.0129309090
   37       -0.0128591600
   38        0.0001484880
   39        0.0001479220
   40        0.0011228000
 Sym= A
 Ene=          9.00000000
 Spin= Alpha
 Occup=        2.00000100
    1        0.0059371010
    2       -0.0143998750
    3       -0.0214328590
    4       -0.0177408410
    5       -0.0035003700
    6       -0.0450242920
    7       -0.0258997460
    8       -0.0059156240
    9       -0.0459089980
   10       -0.0005284800
   11       -0.0001834600
   12        0.0007119420
   13        0.0002572370
   14        0.0085454440
   15        0.0015501150
   16       -0.0570496070
   17        0.2206987730
   18        0.1453904040
   19        0.4339854260
   20        0.0775235310
   21        0.0972440320
   22        0.2531686180
   23        0.0448591260
   24        0.0293113370
   25        0.0266776110
   26       -0.0105804430
   27       -0.0160971710
   28        0.0075815320
   29        0.0008623650
   30        0.0002976900
   31       -0.0129330440
   32       -0.0128605630
   33        0.0001715080
   34       -0.0001198180
   35       -0.0011227720
   36        0.3140729560
   37        0.1217713430
   38       -0.0320543440
   39       -0.0058294300
   40       -0.0096510830
 Sym= A
 Ene=         10.00000000
 Spin= Alpha
 Occup=        0.00000000
    1       -0.0611230410
    2        0.2749758340
    3        0.1101442590
    4       -0.0121329600
    5        0.0005656700
    6        0.6066416260
    7        0.0282615090
    8        0.0021395700
    9        0.3637148440
   10       -0.0067058720
   11       -0.0016648940
   12        0.0540822870
   13        0.0002918190
   14        0.0250892570
   15        0.0009779440
   16        0.0611263010
   17       -0.2750286340
   18       -0.1101143930
   19        0.0117877500
   20        0.0025867170
   21        0.6066435390
   22       -0.0281831710
   23       -0.0026796400
   24        0.3637271520
   25        0.0064266670
   26        0.0018603250
   27       -0.0540197390
   28        0.0012814170
   29        0.0248476800
   30        0.0034019620
   31        0.0143193300
   32       -0.0112085880
   33       -0.0075720730
   34       -0.0000220590
   35        0.0038231290
   36       -0.0143071060
   37        0.0112047060
   38        0.0074040390
   39        0.0012268210
   40        0.0037832090
 Sym= A
 Ene=         11.00000000
 Spin= Alpha
 Occup=       -0.00000000
    1        0.0811778310
    2       -0.3762806520
    3       -0.3122030870
    4       -0.5730155600
    5        0.0008984040
    6        0.1850112540
    7       -0.4448502320
    8        0.0000543770
    9        0.1180695530
   10       -0.0719266840
   11        0.0151649400
   12        0.0201314520
   13       -0.0003037040
   14        0.0185717800
   15        0.0000928190
   16        0.0045941070
   17       -0.0135886280
   18       -0.0447330980
   19        0.0482884560
   20        0.0008549210
   21        0.0027094110
   22        0.0293410170
   23       -0.0019960190
   24       -0.0044893640
   25        0.0070146470
   26        0.0042876060
   27       -0.0052130870
   28       -0.0002758610
   29       -0.0000596860
   30       -0.0000827580
   31        1.0186151600
   32        0.4007281370
   33       -0.0645720400
   34        0.0003685570
   35        0.0213940890
   36       -0.0274401980
   37        0.0103007860
   38        0.0003477730
   39        0.0002150590
   40       -0.0017967320
 Sym= A
 Ene=         12.00000000
 Spin= Alpha
 Occup=       -0.00000000
    1        0.0045960840
    2       -0.0135777300
    3       -0.0447832120
    4        0.0477399840
    5        0.0075325530
    6       -0.0027185520
    7        0.0284776280
    8        0.0071226670
    9        0.0045107080
   10        0.0068763010
   11        0.0044700790
   12       -0.0052408610
   13        0.0007939190
   14        0.0000572790
   15       -0.0000872460
   16        0.0811646980
   17       -0.3762272850
   18       -0.3120878350
   19       -0.5641154770
   20       -0.1002959100
   21       -0.1850034710
   22       -0.4380517310
   23       -0.0775097680
   24       -0.1180478120
   25       -0.0694306920
   26        0.0125721490
   27        0.0201605040
   28       -0.0167003790
   29       -0.0183429480
   30       -0.0031231000
   31       -0.0274250950
   32        0.0103678270
   33        0.0003876820
   34       -0.0001413290
   35        0.0018141460
   36        1.0187434800
   37        0.4004707180
   38       -0.0635067120
   39       -0.0112606220
   40       -0.0214061430
 Sym= A
 Ene=         13.00000000
 Spin= Alpha
 Occup=       -0.00000000
    1       -0.0215818000
    2       -0.2066744050
    3        0.6574033140
    4       -0.0672926630
    5       -0.7935043130
    6       -0.0816647890
    7        0.1503802000
    8        0.9078738620
    9        0.3133320150
   10       -0.1303901610
   11       -0.1233629150
   12        0.0443284250
   13        0.0216933030
   14        0.0440964410
   15       -0.5159376890
   16        0.0212427970
   17        0.0183611460
   18       -0.3667415840
   19       -0.0002850940
   20       -0.0197824030
   21        0.0217337180
   22       -0.0316111550
   23       -0.0728885030
   24        0.2492409830
   25        0.0575719940
   26        0.0624784770
   27       -0.0166167550
   28       -0.0001944870
   29        0.0111870640
   30       -0.0486146280
   31       -0.0390501670
   32       -0.0996239560
   33       -0.0086336580
   34       -0.0279434240
   35       -0.0076299110
   36        0.0224931700
   37       -0.0247574290
   38        0.0063013240
   39       -0.0017002930
   40       -0.0044646190
 Sym= A
 Ene=         14.00000000
 Spin= Alpha
 Occup=       -0.00000000
    1       -0.1071789240
    2       -0.4466170160
    3        2.1771125500
    4       -0.6869600790
    5        0.0605936350
    6       -0.3221526910
    7        1.3710690200
    8       -0.0650613220
    9        0.8494802390
   10       -0.3963890950
   11       -0.4849655900
   12        0.1422182180
   13       -0.0331039380
   14       -0.4622409850
   15        0.0924316210
   16        0.0612512590
   17        0.0300994380
   18       -1.0352205300
   19       -0.0231650460
   20        0.0027369210
   21        0.0782799600
   22       -0.1476477590
   23       -0.0099887160
   24        0.6750065790
   25        0.1681481230
   26        0.1734829670
   27       -0.0550292060
   28       -0.0013589230
   29       -0.0221925060
   30        0.0108429280
   31       -0.5498324410
   32       -0.5796695160
   33        0.0384282900
   34        0.0074852270
   35        0.0308614050
   36        0.0656575200
   37       -0.0291664180
   38        0.0143371930
   39        0.0024873690
   40       -0.0049559280
 Sym= A
 Ene=         15.00000000
 Spin= Alpha
 Occup=        0.00000000
    1       -0.0539361800
    2       -1.1342356000
    3        2.9061443200
    4       -0.1048508640
    5        0.0656186670
    6       -0.3405938610
    7        0.5038516540
    8       -0.0668355970
    9        1.3048220700
   10       -0.2121181700
   11       -0.3515823760
   12       -0.1281063530
   13        0.0081944500
   14        0.7635143540
   15        0.1203909250
   16        0.0902568090
   17        0.1320520320
   18       -1.6752452000
   19        0.0243350490
   20        0.0071354380
   21        0.0500055050
   22       -0.3168322270
   23       -0.0302154030
   24        1.0153891800
   25        0.2029775510
   26        0.2740066920
   27        0.0090489370
   28       -0.0154137160
   29        0.1231334950
   30        0.0143447270
   31       -0.1537768980
   32       -0.4738776480
   33       -0.0250166160
   34        0.0026930780
   35       -0.1229917650
   36        0.1651092350
   37       -0.0047640380
   38        0.0193937680
   39        0.0020372160
   40       -0.0482946740
 Sym= A
 Ene=         16.00000000
 Spin= Alpha
 Occup=       -0.00000000
    1       -0.0432460040
    2        0.0501385160
    3        0.2587533360
    4       -0.3201524980
    5       -0.0114976130
    6        0.5719744410
    7        0.4650997770
    8        0.0181045580
    9       -0.8579178680
   10       -0.4641170320
   11       -0.4178102860
   12        0.3982899820
   13        0.0049629710
   14        0.4848504060
   15        0.0371918700
   16        0.0032864910
   17        0.1093519740
   18       -0.0000338030
   19       -0.0128004870
   20       -0.0007616480
   21       -0.0187487130
   22       -0.2781677870
   23       -0.0321697890
   24       -0.1667440330
   25        0.0451963330
   26        0.0614916990
   27       -0.0586536070
   28       -0.0039328430
   29        0.0596810500
   30        0.0050496800
   31        0.0813681850
   32       -0.2639109250
   33       -0.1436796270
   34        0.0000576060
   35        0.0100659730
   36        0.1203963050
   37        0.1487520240
   38        0.0058304970
   39        0.0008445900
   40       -0.0087124720
 Sym= A
 Ene=         17.00000000
 Spin= Alpha
 Occup=       -0.00000000
    1        0.0108637190
    2       -0.4102608260
    3        0.5320234970
    4       -0.0821415550
    5       -0.0205337080
    6        0.3213508840
    7        0.0454145620
    8        0.0255625020
    9       -0.5031895510
   10       -0.7579408120
   11        0.8556672720
   12       -0.4014285390
   13       -0.0532566340
   14       -0.0598106980
   15        0.0266609320
   16       -0.0167539680
   17        0.0640975340
   18        0.1679318270
   19       -0.0164635350
   20       -0.0003290740
   21       -0.0795061270
   22        0.0286340370
   23       -0.0144244170
   24       -0.1395974980
   25       -0.0110777180
   26       -0.0579711460
   27        0.0518053730
   28        0.0019797790
   29       -0.0215981900
   30        0.0041077950
   31        0.3040452840
   32       -0.3338215620
   33       -0.1063416360
   34        0.0071764110
   35        0.0567429750
   36       -0.0071698560
   37        0.0588018630
   38       -0.0011805520
   39        0.0017186430
   40       -0.0022317680
 Sym= A
 Ene=         18.00000000
 Spin= Alpha
 Occup=       -0.00000000
    1       -0.0205490310
    2       -1.3190417200
    3        3.0262604600
    4        0.3976278500
    5        0.0166910750
    6        0.2397611420
    7        0.1589265580
    8       -0.0186459950
    9        0.3870402430
   10        0.0827590020
   11       -0.7226445360
   12        0.2401724090
   13       -0.0112627310
   14       -0.5363092260
   15        0.0122937230
   16        0.0731574080
   17        0.1999237440
   18       -1.3087331400
   19        0.0106036040
   20        0.0024835130
   21        0.0101827050
   22        0.1271603570
   23        0.0030818960
   24        0.9206759760
   25        0.2488072550
   26        0.2683169650
   27       -0.1168594160
   28       -0.0011355520
   29       -0.0286029680
   30        0.0026799760
   31       -0.6079992480
   32       -0.5447564840
   33        0.2157999880
   34        0.0019081190
   35       -0.0224831570
   36       -0.0030839290
   37       -0.0287614050
   38        0.0253193600
   39        0.0031544770
   40       -0.0212477310
 Sym= A
 Ene=         19.00000000
 Spin= Alpha
 Occup=        0.00000000
    1       -0.0179463190
    2        0.0323786820
    3        0.0911796680
    4       -0.0062971530
    5       -0.0246932110
    6        0.0128373400
    7        0.0646376660
    8        0.0316202330
    9       -0.0911441650
   10        0.0662556940
   11       -0.1054812780
   12       -0.1414215290
   13       -1.0354067900
   14        0.0222472750
   15        0.0548581590
   16       -0.0046246920
   17        0.0004647840
   18        0.0533813890
   19        0.0021659810
   20       -0.0032845920
   21       -0.0102917550
   22       -0.0320452400
   23       -0.0145284160
   24       -0.0717756860
   25       -0.0228657340
   26       -0.0150416380
   27        0.0293036720
   28        0.0256760090
   29        0.0054777840
   30        0.0034603480
   31       -0.0651841240
   32       -0.0445843200
   33        0.0036932650
   34        0.1328315580
   35       -0.0086403010
   36        0.0087128740
   37        0.0268926290
   38       -0.0019007730
   39       -0.0050667580
   40        0.0012069180
 Sym= A
 Ene=         20.00000000
 Spin= Alpha
 Occup=        0.00000000
    1       -0.4250909960
    2       -0.0559302910
    3        3.7057897700
    4       -0.1918781290
    5       -0.0152818520
    6        0.0298444520
    7        0.3569149350
    8        0.0206752650
    9       -0.0744681940
   10       -1.3078499800
   11       -1.5205146800
   12       -1.8143635900
   13        0.0723763200
   14        0.0032774390
   15        0.0133470750
   16        0.0022281950
   17       -0.0089234820
   18       -0.3178586890
   19       -0.0092776450
   20       -0.0000019480
   21       -0.0437489230
   22       -0.0574835340
   23       -0.0167489940
   24       -0.0511355340
   25       -0.0861759190
   26       -0.0599441310
   27        0.3348354820
   28       -0.0092685270
   29       -0.0089038010
   30       -0.0013809280
   31        0.0075397250
   32       -0.6581288130
   33       -0.2950684330
   34       -0.0093075260
   35        0.0525580440
   36        0.0779409010
   37        0.0203206580
   38       -0.0203846930
   39       -0.0032350660
   40        0.0259032010
 Sym= A
 Ene=         21.00000000
 Spin= Alpha
 Occup=       -0.00000000
    1        0.0045022610
    2       -0.1107420760
    3        0.2164542500
    4       -0.0865460510
    5        0.4992495090
    6        0.0496427060
    7        0.3142642640
    8       -0.6565567810
    9       -0.1572781440
   10        0.1799108260
   11        0.0008022300
   12       -0.1209124290
   13       -0.0456390350
   14        0.0192398710
   15       -0.8934612830
   16       -0.0050635580
   17        0.0197616700
   18        0.0464373520
   19       -0.0030288170
   20       -0.0066136310
   21       -0.0230564600
   22       -0.0658632810
   23        0.3202651330
   24       -0.0448776480
   25       -0.0129202860
   26       -0.0073076820
   27        0.0118382200
   28        0.0044310760
   29        0.0146964580
   30       -0.1324860340
   31       -0.2048518420
   32       -0.1676116920
   33        0.0424659960
   34       -0.0108141340
   35       -0.0220698060
   36        0.0021870830
   37        0.0255257250
   38        0.0000463210
   39       -0.0124569010
   40        0.0006190310
 Sym= A
 Ene=         22.00000000
 Spin= Alpha
 Occup=       -0.00000000
    1       -0.1310827000
    2        0.0748993310
    3        0.8689566050
    4        0.1980157310
    5        0.1215478320
    6       -0.2993580750
    7       -1.1988293600
    8       -0.1554137170
    9        1.2891743200
   10       -1.6008034800
   11       -0.3742875650
   12        0.4695281530
   13       -0.0781903330
   14        0.1353440700
   15       -0.1280787430
   16        0.0618815850
   17       -0.0609024350
   18       -0.9089325820
   19        0.0098625370
   20        0.0010779970
   21        0.1472723040
   22        0.3180067030
   23        0.0819810550
   24        0.7296358350
   25        0.1953813250
   26        0.1351360890
   27       -0.0791245830
   28        0.0095129830
   29       -0.0310568260
   30       -0.0186559080
   31        1.0793211100
   32        0.4867092120
   33       -0.3328017830
   34        0.0085437110
   35        0.1106983580
   36       -0.0991178930
   37       -0.1806686730
   38        0.0273292150
   39        0.0047440720
   40        0.0029947680
 Sym= A
 Ene=         23.00000000
 Spin= Alpha
 Occup=       -0.00000000
    1        0.0216362190
    2        0.0183727950
    3       -0.3734997680
    4       -0.0042120420
    5        0.0196558660
    6       -0.0220327700
    7       -0.0420739770
    8        0.0661836880
    9       -0.2552979370
   10        0.0591438970
   11        0.0634352280
   12       -0.0173319580
   13       -0.0007597290
   14       -0.0017223070
   15       -0.0500238160
   16       -0.0222057530
   17       -0.2090336780
   18        0.6693373130
   19       -0.2066946630
   20        0.7692237000
   21        0.0847911670
   22        0.3100579090
   23       -0.8670020860
   24       -0.3218145850
   25       -0.1262169000
   26       -0.1326273890
   27        0.0451889250
   28       -0.0217736420
   29        0.0515210970
   30       -0.5140054610
   31        0.0218004770
   32       -0.0261259350
   33        0.0061433610
   34        0.0027154790
   35        0.0044629190
   36       -0.0422058560
   37       -0.0999541700
   38       -0.0135917680
   39        0.0260197600
   40        0.0071742750
 Sym= A
 Ene=         24.00000000
 Spin= Alpha
 Occup=       -0.00000000
    1        0.0611615870
    2        0.0301185550
    3       -1.0340784500
    4       -0.0218577590
    5       -0.0068149840
    6       -0.0781856400
    7       -0.1462301720
    8       -0.0161366560
    9       -0.6744899200
   10        0.1681044420
   11        0.1737001500
   12       -0.0554942880
   13        0.0003164240
   14        0.0202983170
   15        0.0146850980
   16       -0.1071791520
   17       -0.4462626960
   18        2.1763412200
   19       -0.6636871610
   20       -0.1834328190
   21        0.3220259240
   22        1.3359729300
   23        0.3074927220
   24       -0.8490877170
   25       -0.4077410200
   26       -0.4722550640
   27        0.1408138800
   28        0.0484020520
   29        0.4412447810
   30        0.1747273950
   31        0.0650439860
   32       -0.0291934440
   33        0.0147872790
   34       -0.0001328820
   35        0.0048324930
   36       -0.5499502400
   37       -0.5794750830
   38        0.0395752660
   39       -0.0014741780
   40       -0.0309626420
 Sym= A
 Ene=         25.00000000
 Spin= Alpha
 Occup=        0.00000000
    1        0.0902882190
    2        0.1323406710
    3       -1.6761492400
    4        0.0254554000
    5       -0.0029749520
    6       -0.0499142290
    7       -0.3183557210
    8       -0.0244469280
    9       -1.0156882600
   10        0.2003435910
   11        0.2769615560
   12        0.0090755940
   13        0.0007354250
   14       -0.1246998740
   15       -0.0071724160
   16       -0.0540831280
   17       -1.1346717900
   18        2.9092209000
   19       -0.0929327600
   20       -0.0813042770
   21        0.3406787380
   22        0.4877952440
   23        0.1513032550
   24       -1.3044647900
   25       -0.2140248580
   26       -0.3497506260
   27       -0.1288484080
   28        0.0192484310
   29       -0.7722864310
   30       -0.0135561550
   31        0.1654646810
   32       -0.0044588030
   33        0.0196650650