[Molden Format]
 Molden2AIM, Version 5.0.2 (10/09/2020)           Time: Tue Apr  6 00:21:31 2021

[Atoms] AU
  O      1    8        0.0000000000        0.0000000000        0.0000000000
  O      2    8        0.0000000000        0.0000000000        2.7620617201
  H      3    1        1.7632934844        0.0000000000       -0.4771921162
  H      4    1       -1.6569538668        0.6030818860        3.2392538382
[GTO]
    1    0
 S    6  1.0
    0.5484672000D+04    0.1831100116D-02
    0.8252350000D+03    0.1395010088D-01
    0.1880470000D+03    0.6844510432D-01
    0.5296450000D+02    0.2327140147D+00
    0.1689757000D+02    0.4701930297D+00
    0.5799635000D+01    0.3585210226D+00
 S    3  1.0
    0.1553962000D+02   -0.1107766479D+00
    0.3599934000D+01   -0.1480255295D+00
    0.1013762000D+01    0.1130766406D+01
 S    1  1.0
    0.2700058000D+00    0.1000000000D+01
 P    3  1.0
    0.1553962000D+02    0.7087426029D-01
    0.3599934000D+01    0.3397528096D+00
    0.1013762000D+01    0.7271585926D+00
 P    1  1.0
    0.2700058000D+00    0.1000000000D+01
 D    1  1.0
    0.8000000000D+00    0.1000000000D+01

    2    0
 S    6  1.0
    0.5484672000D+04    0.1831100116D-02
    0.8252350000D+03    0.1395010088D-01
    0.1880470000D+03    0.6844510432D-01
    0.5296450000D+02    0.2327140147D+00
    0.1689757000D+02    0.4701930297D+00
    0.5799635000D+01    0.3585210226D+00
 S    3  1.0
    0.1553962000D+02   -0.1107766479D+00
    0.3599934000D+01   -0.1480255295D+00
    0.1013762000D+01    0.1130766406D+01
 S    1  1.0
    0.2700058000D+00    0.1000000000D+01
 P    3  1.0
    0.1553962000D+02    0.7087426029D-01
    0.3599934000D+01    0.3397528096D+00
    0.1013762000D+01    0.7271585926D+00
 P    1  1.0
    0.2700058000D+00    0.1000000000D+01
 D    1  1.0
    0.8000000000D+00    0.1000000000D+01

    3    0
 S    3  1.0
    0.1873114000D+02    0.3349460926D-01
    0.2825394000D+01    0.2347270649D+00
    0.6401217000D+00    0.8137572250D+00
 S    1  1.0
    0.1612778000D+00    0.1000000000D+01
 P    1  1.0
    0.1100000000D+01    0.1000000000D+01

    4    0
 S    3  1.0
    0.1873114000D+02    0.3349460926D-01
    0.2825394000D+01    0.2347270649D+00
    0.6401217000D+00    0.8137572250D+00
 S    1  1.0
    0.1612778000D+00    0.1000000000D+01
 P    1  1.0
    0.1100000000D+01    0.1000000000D+01

[MO]
 Sym= A
 Ene=          1.00000000
 Spin= Alpha
 Occup=        1.99999800
    1        1.0107283700
    2       -0.0195679540
    3       -0.0488760620
    4        0.0028318590
    5        0.0001072560
    6        0.0023944660
    7        0.0012836280
    8       -0.0000712640
    9       -0.0016103610
   10        0.0009080150
   11        0.0006317330
   12       -0.0015397480
   13        0.0000518580
   14       -0.0000036510
   15       -0.0000452020
   16        0.0007286540
   17       -0.0028561670
   18        0.0036474650
   19        0.0001903820
   20       -0.0001041120
   21        0.0074055870
   22        0.0002004850
   23       -0.0001535030
   24        0.0008508300
   25        0.0008110320
   26        0.0006351250
   27       -0.0014461570
   28       -0.0001276370
   29       -0.0004198130
   30        0.0001249810
   31       -0.0100282550
   32        0.0024665890
   33        0.0031046150
   34        0.0000058450
   35       -0.0005192540
   36       -0.0000405270
   37        0.0009238590
   38       -0.0001073740
   39        0.0000319840
   40        0.0002133300
 Sym= A
 Ene=          2.00000000
 Spin= Alpha
 Occup=        2.00000100
    1        0.0007287780
    2       -0.0028561250
    3        0.0036475490
    4       -0.0002144840
    5       -0.0000336880
    6       -0.0074057660
    7       -0.0002411380
    8       -0.0000758140
    9       -0.0008509260
   10        0.0008614170
   11        0.0005847670
   12       -0.0014461840
   13        0.0000324360
   14       -0.0004370240
   15        0.0000267430
   16        1.0107286200
   17       -0.0195687820
   18       -0.0488770030
   19       -0.0026253230
   20        0.0010688350
   21       -0.0023944910
   22       -0.0012300140
   23        0.0003729860
   24        0.0016102950
   25        0.0008467270
   26        0.0006930520
   27       -0.0015397790
   28       -0.0001414840
   29        0.0000119770
   30        0.0000440260
   31       -0.0000405900
   32        0.0009238360
   33        0.0001122150
   34       -0.0000064020
   35       -0.0002133360
   36       -0.0100279510
   37        0.0024668190
   38       -0.0029159120
   39        0.0010678590
   40        0.0005192460
 Sym= A
 Ene=          3.00000000
 Spin= Alpha
 Occup=        1.99999900
    1       -0.1275159490
    2        0.4379125310
    3        0.5142226890
    4       -0.3441969330
    5        0.0237065840
    6       -0.1715074970
    7       -0.2358155850
    8        0.0181639820
    9       -0.1238919040
   10       -0.0111506510
   11        0.0108338320
   12        0.0003168190
   13       -0.0000341750
   14       -0.0101477430
   15        0.0005218740
   16        0.0098793900
   17       -0.0265723460
   18       -0.0311318860
   19        0.0184794160
   20       -0.0005019850
   21        0.0579220250
   22        0.0269847650
   23       -0.0007624950
   24        0.0593767660
   25       -0.0038547120
   26       -0.0004084790
   27        0.0042631890
   28        0.0008246270
   29        0.0070790260
   30       -0.0002498310
   31       -0.0551633920
   32       -0.0704916300
   33       -0.0070328120
   34        0.0007552820
   35       -0.0048358280
   36       -0.0142508510
   37        0.0004623550
   38        0.0001951350
   39        0.0001914470
   40        0.0019141230
 Sym= A
 Ene=          4.00000000
 Spin= Alpha
 Occup=        2.00000000
    1       -0.0053372520
    2        0.0195077000
    3        0.0204360760
    4       -0.0122476120
    5       -0.6678411810
    6       -0.0021438980
    7       -0.0061924020
    8       -0.4854648100
    9       -0.0031569010
   10        0.0002874100
   11       -0.0006376650
   12        0.0003502550
   13       -0.0208915390
   14        0.0003743110
   15       -0.0069984690
   16        0.0013808270
   17       -0.0023141350
   18       -0.0110791590
   19        0.0051744650
   20        0.0328241610
   21        0.0004373090
   22        0.0086113730
   23        0.0523047880
   24        0.0010058360
   25       -0.0002561340
   26        0.0001010280
   27        0.0001551060
   28       -0.0016444230
   29       -0.0005796460
   30        0.0143500350
   31       -0.0027132660
   32       -0.0058064320
   33       -0.0001119200
   34       -0.0213850620
   35        0.0001077560
   36        0.0100322750
   37        0.0106890390
   38        0.0006772230
   39        0.0014078980
   40        0.0001429120
 Sym= A
 Ene=          5.00000000
 Spin= Alpha
 Occup=        1.99999700
    1        0.0098851460
    2       -0.0265818860
    3       -0.0311772180
    4       -0.0175142110
    5        0.0059833970
    6       -0.0579235090
    7       -0.0255805170
    8        0.0087259340
    9       -0.0593810690
   10       -0.0039084300
   11       -0.0003555340
   12        0.0042639620
   13        0.0006537030
   14        0.0067145730
   15       -0.0022410670
   16       -0.1275365120
   17        0.4379938320
   18        0.5143056960
   19        0.3306490060
   20       -0.0980247260
   21        0.1715160540
   22        0.2271444510
   23       -0.0654562540
   24        0.1239039870
   25       -0.0085111300
   26        0.0081931280
   27        0.0003180050
   28        0.0082492070
   29       -0.0097025890
   30        0.0030067940
   31       -0.0142115900
   32        0.0005054300
   33       -0.0001190550
   34        0.0002530150
   35       -0.0019147640
   36       -0.0551680040
   37       -0.0705128550
   38        0.0068382910
   39       -0.0017785240
   40        0.0048351630
 Sym= A
 Ene=          6.00000000
 Spin= Alpha
 Occup=        2.00000100
    1        0.0013423950
    2       -0.0022096670
    3       -0.0109556520
    4        0.0064324370
    5        0.0325835900
    6       -0.0002036090
    7        0.0099000620
    8        0.0520554300
    9       -0.0007655950
   10        0.0007169280
   11       -0.0008544290
   12        0.0001375010
   13        0.0013893110
   14       -0.0054807910
   15       -0.0132774120
   16       -0.0048165420
   17        0.0177208210
   18        0.0183361740
   19       -0.2182685170
   20       -0.6313550760
   21        0.0014474300
   22       -0.1611547170
   23       -0.4580396100
   24        0.0026525550
   25        0.0118445020
   26       -0.0121927880
   27        0.0003482870
   28        0.0156269460
   29        0.0027842210
   30        0.0064357240
   31        0.0100883530
   32        0.0106869380
   33       -0.0001545760
   34        0.0015532160
   35       -0.0001352440
   36       -0.0024807640
   37       -0.0055155010
   38       -0.0072361480
   39       -0.0201268840
   40       -0.0001276470
 Sym= A
 Ene=          7.00000000
 Spin= Alpha
 Occup=        2.00000100
    1       -0.0321017240
    2        0.1370727560
    3        0.0796948730
    4        0.0218712460
    5        0.0007635310
    6        0.3952231470
    7        0.0266032990
    8        0.0021624400
    9        0.2484293060
   10       -0.0195776790
   11       -0.0177516280
   12        0.0373293050
   13       -0.0004041740
   14        0.0124066680
   15        0.0012774870
   16       -0.0320997610
   17        0.1370679790
   18        0.0796907990
   19       -0.0202866600
   20        0.0081896560
   21       -0.3952241660
   22       -0.0242573300
   23        0.0111249740
   24       -0.2484291820
   25       -0.0191393920
   26       -0.0181901950
   27        0.0373295870
   28        0.0009874450
   29        0.0112214510
   30       -0.0054440320
   31       -0.0172396800
   32       -0.0420912240
   33       -0.0009085280
   34       -0.0000736340
   35        0.0093147070
   36       -0.0172447460
   37       -0.0420927800
   38        0.0008278700
   39       -0.0003795670
   40       -0.0093145530
 Sym= A
 Ene=          8.00000000
 Spin= Alpha
 Occup=        2.00000000
    1       -0.0603956860
    2        0.2329333180
    3        0.1572865680
    4        0.4409774890
    5        0.0017866830
    6       -0.0893839080
    7        0.2610993380
    8        0.0008786110
    9       -0.0299430160
   10        0.0255191400
   11       -0.0102678110
   12       -0.0152513310
   13        0.0004532760
   14       -0.0003625680
   15       -0.0004269960
   16        0.0085739120
   17       -0.0165922340
   18       -0.0485849720
   19       -0.0095608990
   20       -0.0036459350
   21        0.0389017580
   22       -0.0188230440
   23       -0.0056577020
   24        0.0411819250
   25        0.0010657050
   26       -0.0017391800
   27        0.0006734730
   28       -0.0002002570
   29       -0.0111388780
   30        0.0008976770
   31        0.3090557510
   32        0.1053847180
   33       -0.0335021140
   34        0.0000848140
   35        0.0085992310
   36        0.0190149470
   37        0.0175260700
   38        0.0001379910
   39       -0.0003283550
   40        0.0006339980
 Sym= A
 Ene=          9.00000000
 Spin= Alpha
 Occup=        2.00000000
    1        0.0085728320
    2       -0.0165886990
    3       -0.0485838960
    4        0.0077474440
    5       -0.0066906740
    6       -0.0388940380
    7        0.0157594290
    8       -0.0117522650
    9       -0.0411760050
   10        0.0008490130
   11       -0.0015227730
   12        0.0006737580
   13       -0.0008881900
   14       -0.0107737620
   15        0.0029657530
   16       -0.0603929490
   17        0.2329258440
   18        0.1572760910
   19       -0.4137751760
   20        0.1525177640
   21        0.0893737190
   22       -0.2450549480
   23        0.0901378870
   24        0.0299363400
   25        0.0210803200
   26       -0.0058295900
   27       -0.0152507310
   28       -0.0136283690
   29       -0.0001947390
   30        0.0005247920
   31        0.0190202200
   32        0.0175273810
   33       -0.0002429030
   34       -0.0002614090
   35       -0.0006336210
   36        0.3090570200
   37        0.1053858020
   38        0.0315107840
   39       -0.0113784770
   40       -0.0085994950
 Sym= A
 Ene=         10.00000000
 Spin= Alpha
 Occup=       -0.00000000
    1       -0.0605338030
    2        0.2793613440
    3        0.0909082180
    4       -0.0164140710
    5        0.0016918910
    6        0.6072256320
    7       -0.0044800270
    8        0.0045710250
    9        0.3641158950
   10       -0.0075833630
   11        0.0007529430
   12        0.0576425330
   13       -0.0005235120
   14        0.0142859680
   15        0.0021434780
   16        0.0605567060
   17       -0.2794746330
   18       -0.0910493940
   19       -0.0159178310
   20        0.0039070620
   21        0.6072227260
   22       -0.0056130580
   23       -0.0027128230
   24        0.3641375110
   25        0.0061521410
   26        0.0004743400
   27       -0.0574067450
   28       -0.0034402230
   29       -0.0127905630
   30        0.0068977850
   31        0.0297395820
   32       -0.0015499090
   33       -0.0071079020
   34        0.0000360670
   35        0.0056286700
   36       -0.0295915600
   37        0.0016478430
   38       -0.0065109830
   39        0.0022365750
   40        0.0054241940
 Sym= A
 Ene=         11.00000000
 Spin= Alpha
 Occup=        0.00000000
    1        0.0818855300
    2       -0.3804445970
    3       -0.3065154980
    4       -0.5674820190
    5       -0.0013399820
    6        0.1722886050
    7       -0.4434708880
    8       -0.0011840320
    9        0.1173927920
   10       -0.0727935320
   11        0.0125988790
   12        0.0179813430
   13       -0.0004080510
   14        0.0184304710
   15        0.0005509370
   16        0.0016687860
   17       -0.0137547090
   18       -0.0186595760
   19        0.0302477500
   20        0.0058824090
   21        0.0013888880
   22        0.0357502750
   23        0.0035958070
   24        0.0006361940
   25        0.0044492340
   26        0.0024437230
   27       -0.0073460880
   28        0.0000426900
   29        0.0002874040
   30       -0.0000833070
   31        1.0385205200
   32        0.3806762040
   33       -0.0681795340
   34        0.0003382060
   35        0.0203871260
   36       -0.0260239320
   37       -0.0031672140
   38       -0.0019088420
   39        0.0011244470
   40        0.0002547080
 Sym= A
 Ene=         12.00000000
 Spin= Alpha
 Occup=        0.00000000
    1        0.0016658880
    2       -0.0137306700
    3       -0.0186840600
    4       -0.0263670120
    5        0.0160212860
    6       -0.0014312870
    7       -0.0323753790
    8        0.0155168340
    9       -0.0006720930
   10        0.0043508530
   11        0.0027001770
   12       -0.0074888470
   13       -0.0007848200
   14        0.0003046560
   15       -0.0000536740
   16        0.0818179330
   17       -0.3802410300
   18       -0.3059649330
   19        0.5325931820
   20       -0.1951172740
   21       -0.1722381040
   22        0.4163893500
   23       -0.1530817440
   24       -0.1174372000
   25       -0.0628729630
   26        0.0021616240
   27        0.0180400960
   28        0.0318378470
   29        0.0173124910
   30       -0.0068448690
   31       -0.0261374480
   32       -0.0031271630
   33        0.0022601920
   34        0.0004201510
   35       -0.0002862460
   36        1.0390043300
   37        0.3799516620
   38        0.0639434160
   39       -0.0225563710
   40       -0.0203597660
 Sym= A
 Ene=         13.00000000
 Spin= Alpha
 Occup=        0.00000000
    1       -0.0184855140
    2       -1.0007187600
    3        2.1400193800
    4        0.5301838960
    5       -0.3320558550
    6       -0.1910598310
    7       -0.8474579990
    8        0.3869535370
    9        1.2727884400
   10       -0.5262442940
   11       -0.2692955010
   12        0.2378533670
   13        0.0752174280
   14        0.3416057510
   15       -0.1249036190
   16        0.0788598110
   17        0.0845194630
   18       -1.3688460600
   19        0.0109659270
   20       -0.0054692120
   21        0.0760719460
   22        0.0413917450
   23       -0.0312276890
   24        1.0368120600
   25        0.2266374830
   26        0.2244282480
   27       -0.0823935540
   28        0.0001973470
   29        0.0220457790
   30       -0.0063915700
   31        0.3631127910
   32        0.0412795170
   33       -0.0581867850
   34       -0.0180749590
   35       -0.0358446860
   36        0.0562505050
   37       -0.2075525910
   38       -0.0220360200
   39        0.0078844870
   40       -0.0113039730
 Sym= A
 Ene=         14.00000000
 Spin= Alpha
 Occup=        0.00000000
    1        0.0060083030
    2       -0.3276335520
    3        0.5510694880
    4        0.2022675990
    5        0.7239144590
    6       -0.0201805930
    7       -0.3482042420
    8       -0.8248607720
    9        0.3207914640
   10       -0.1545379910
   11        0.0040791440
   12        0.0323581050
   13       -0.0992481740
   14        0.2728907370
   15        0.5035112130
   16        0.0196024310
   17        0.0287471830
   18       -0.3523763680
   19        0.0051758090
   20        0.0190565440
   21        0.0123573150
   22       -0.0080768870
   23        0.0658889670
   24        0.2745954320
   25        0.0599720060
   26        0.0549542640
   27       -0.0180085560
   28        0.0042840100
   29        0.0248769280
   30        0.0493158880
   31        0.1867834190
   32        0.0313035550
   33       -0.0377029600
   34        0.0367984590
   35       -0.0252999340
   36        0.0019173440
   37       -0.0542006300
   38       -0.0044562090
   39        0.0055357400
   40       -0.0038416080
 Sym= A
 Ene=         15.00000000
 Spin= Alpha
 Occup=       -0.00000000
    1       -0.0682790580
    2       -0.5321852740
    3        1.9412476300
    4       -0.0071794950
    5       -0.0090078920
    6       -0.6237695330
    7        0.4115559880
    8        0.0279815830
    9        1.3058480500
   10        0.2048909920
   11       -0.3965940500
   12       -0.2890790650
   13       -0.0804006460
   14       -0.7095836190
   15        0.2092312880
   16        0.0595988540
   17        0.0068087910
   18       -1.1123778600
   19       -0.0176967330
   20        0.0076551570
   21        0.0687928900
   22        0.1066431780
   23       -0.0618198530
   24        0.7121681260
   25        0.0911729570
   26        0.1421715650
   27        0.0552417840
   28        0.0220203270
   29       -0.0575235520
   30        0.0270146200
   31       -0.5601067540
   32       -0.2353376020
   33        0.1740514930
   34        0.0157436250
   35       -0.0048894760
   36        0.0950494300
   37       -0.0720832190
   38       -0.0033854330
   39        0.0009197580
   40       -0.0330538080
 Sym= A
 Ene=         16.00000000
 Spin= Alpha
 Occup=        0.00000000
    1       -0.1049908310
    2       -0.3041598810
    3        1.7592051200
    4       -0.0680702430
    5       -0.0301093680
    6        0.0958577530
    7        0.2257235910
    8        0.0522804440
    9        0.4825758450
   10       -0.4357651870
   11       -1.1926747500
   12        0.7418907230
   13       -0.0602716400
   14       -0.2213672570
   15        0.2021637860
   16        0.0697384160
   17        0.1136682430
   18       -1.1146565600
   19       -0.0089131140
   20        0.0044798110
   21        0.0984425400
   22        0.0412934670
   23       -0.0628837630
   24        0.7006259320
   25        0.2192169670
   26        0.2462238300
   27       -0.1472455850
   28        0.0072242600
   29       -0.0227650180
   30        0.0288791150
   31       -0.1834368550
   32       -0.1612154090
   33       -0.0111898580
   34        0.0126761800
   35        0.0349769310
   36        0.0675470000
   37       -0.0095080500
   38       -0.0220843830
   39        0.0084252970
   40       -0.0159889320
 Sym= A
 Ene=         17.00000000
 Spin= Alpha
 Occup=       -0.00000000
    1       -0.0160542440
    2       -0.0779431970
    3        0.1051536720
    4        0.3497975680
    5       -0.1632182920
    6        0.5144150130
    7       -0.4638994700
    8        0.2194553520
    9       -1.0244751300
   10       -0.2892759850
   11        0.1918899860
   12       -0.4314785290
   13       -0.1199210860
   14       -0.6159372800
   15        0.3185964140
   16       -0.0297224510
   17        0.0607412110
   18        0.4519033160
   19       -0.0004344490
   20        0.0006877800
   21       -0.0956988140
   22        0.3451855210
   23       -0.1519902490
   24       -0.4466105120
   25       -0.0979233440
   26       -0.0766088480
   27        0.0969901020
   28        0.0204286600
   29       -0.0813640910
   30        0.0421863170
   31        0.0730791100
   32       -0.1313444370
   33        0.0164451540
   34        0.0217014760
   35        0.0845546340
   36        0.1492359840
   37        0.0902697050
   38        0.0113129540
   39       -0.0014309830
   40       -0.0068627980
 Sym= A
 Ene=         18.00000000
 Spin= Alpha
 Occup=        0.00000000
    1       -0.4367140700
    2        0.0736258600
    3        3.5140180000
    4       -0.2277836890
    5       -0.0087714880
    6       -0.0729032740
    7        0.1762504910
    8        0.0105939780
    9        0.1812622910
   10       -1.5458821700
   11       -1.5092877200
   12       -1.6879186000
   13        0.0566628040
   14        0.2474297680
   15       -0.0058728480
   16       -0.0022238710
   17       -0.0740039220
   18       -0.1865131950
   19        0.0050309240
   20       -0.0039078810
   21       -0.0144653270
   22       -0.0886645620
   23        0.0211303300
   24        0.0416123030
   25       -0.0743122260
   26       -0.0873399640
   27        0.2765425390
   28       -0.0012353170
   29        0.0510647040
   30       -0.0075052850
   31        0.2645998920
   32       -0.5120299400
   33       -0.3712182020
   34       -0.0079238290
   35        0.0482669990
   36        0.0324769270
   37       -0.1644005500
   38        0.0060878530
   39       -0.0016045490
   40        0.0540872370
 Sym= A
 Ene=         19.00000000
 Spin= Alpha
 Occup=        0.00000000
    1       -0.0128577420
    2       -0.0660457380
    3        0.2440923190
    4       -0.0181650620
    5       -0.0256994850
    6       -0.0001792070
    7        0.0878095840
    8        0.0126565370
    9        0.0041399260
   10        0.0405269330
   11       -0.0892989990
   12       -0.1018687950
   13       -1.0174019200
   14        0.1325671870
   15       -0.1513989140
   16       -0.0027978770
   17       -0.0076510590
   18        0.0343959450
   19        0.0065146120
   20       -0.0095632700
   21       -0.0070549820
   22       -0.0729842350
   23        0.0449199010
   24        0.0253353450
   25       -0.0049659910
   26       -0.0090976320
   27        0.0038113480
   28        0.0224367860
   29        0.0216877100
   30       -0.0244370450
   31       -0.0481204380
   32       -0.0610380080
   33       -0.0052064610
   34        0.1271701280
   35       -0.0203457160
   36       -0.0180223510
   37       -0.0527543800
   38        0.0020690030
   39        0.0010973970
   40        0.0052412710
 Sym= A
 Ene=         20.00000000
 Spin= Alpha
 Occup=       -0.00000000
    1       -0.0644287050
    2       -1.3634081900
    3        3.5012950800
    4       -0.4819547270
    5        0.0097729820
    6        0.2119896040
    7        1.5383903800
    8       -0.0134319800
    9        0.1120993650
   10       -0.2297525740
   11       -0.2864496320
   12       -0.2815117410
   13        0.0491190180
   14        0.0139850140
   15       -0.0321999600
   16        0.0454220210
   17        0.1644650370
   18       -0.9373525670
   19       -0.0264516080
   20       -0.0002909400
   21       -0.0302078260
   22       -0.2283369670
   23        0.0164210790
   24        0.6870126770
   25        0.1651342760
   26        0.1599543080
   27       -0.0360521150
   28        0.0016139060
   29        0.0440948180
   30       -0.0015739970
   31       -0.7530116560
   32       -1.1041278700
   33        0.0776413360
   34       -0.0071711790
   35       -0.0481714880
   36       -0.0060565990
   37       -0.0431238270
   38       -0.0136445620
   39        0.0052925350
   40       -0.0244751990
 Sym= A
 Ene=         21.00000000
 Spin= Alpha
 Occup=        0.00000000
    1       -0.0440221850
    2       -0.1991062620
    3        0.7835277570
    4        0.1543702700
    5        0.4915331030
    6        0.0497831040
    7       -0.2296008050
    8       -0.6380175820
    9        0.1397762790
   10       -0.3570489560
   11       -0.1952588190
   12        0.0112091580
   13        0.0464175040
   14       -0.3847921130
   15       -0.7889373290
   16        0.0187071800
   17        0.0309510200
   18       -0.3235613900
   19       -0.0048286850
   20       -0.0044615290
   21        0.0154522870
   22        0.1332789470
   23        0.2958594970
   24        0.2078985960
   25        0.0516407770
   26        0.0553753340
   27       -0.0080172890
   28       -0.0018788660
   29       -0.0553819620
   30       -0.1167164730
   31        0.0467298390
   32       -0.0490667900
   33       -0.0035311470
   34       -0.0204309910
   35        0.0520668160
   36        0.0227526340
   37       -0.0209096180
   38       -0.0104240520
   39       -0.0085842320
   40       -0.0030741140
 Sym= A
 Ene=         22.00000000
 Spin= Alpha
 Occup=       -0.00000000
    1       -0.0610339070
    2        0.2148783360
    3        0.0113430190
    4       -0.2878504060
    5       -0.0333418910
    6       -0.2373932910
    7       -0.3831180720
    8        0.0457581940
    9        0.7907219290
   10       -1.4738959700
   11        0.4158230550
   12        0.3919927400
   13       -0.0947203740
   14        0.0603503920
   15        0.0969225610
   16        0.0351372820
   17       -0.0324581910
   18       -0.5238662960
   19       -0.0232645750
   20        0.0033577860
   21        0.0950399100
   22        0.0579062740
   23       -0.0286778600
   24        0.3282874110
   25        0.1078675260
   26        0.0671836610
   27       -0.0430547510
   28        0.0027125500
   29       -0.0398895400
   30        0.0127386460
   31        0.9077976660
   32        0.2325332320
   33       -0.3034189870
   34        0.0142855630
   35        0.1207112380
   36        0.0185502290
   37       -0.0350358410
   38       -0.0141297810
   39        0.0084116710
   40        0.0087043370
 Sym= A
 Ene=         23.00000000
 Spin= Alpha
 Occup=        0.00000000
    1        0.0781500770
    2        0.0841765500
    3       -1.3583189900
    4       -0.0113504730
    5       -0.0030801190
    6       -0.0751577890
    7       -0.0461876430
    8       -0.0174042190
    9       -1.0309651600
   10        0.2261705310
   11        0.2233737790
   12       -0.0835995210
   13       -0.0009655600
   14        0.0236951270
   15        0.0010062990
   16       -0.0197330430
   17       -0.9917123840
   18        2.1395429600
   19       -0.6103120620
   20       -0.1616623980
   21        0.1924624560
   22        0.9134195030
   23        0.1126919130
   24       -1.2641149600
   25       -0.5322389210
   26       -0.2584163320
   27        0.2312281980
   28        0.0312821980
   29        0.3647225370
   30        0.0218124750
   31        0.0538551420
   32       -0.2069090570
   33        0.0247956930
   34        0.0002036350
   35        0.0111251630
   36        0.3486719220
   37        0.0325420010
   38        0.0436154230
   39       -0.0337868400
   40        0.0348686580
 Sym= A
 Ene=         24.00000000
 Spin= Alpha
 Occup=       -0.00000000
    1        0.0227896980
    2        0.0331616640
    3       -0.4081029620
    4        0.0017654810
    5        0.0201766510
    6       -0.0148216860
    7        0.0272482570
    8        0.0584169120
    9       -0.3172940580
   10        0.0665415910
   11        0.0675195470
   12       -0.0218094630
   13       -0.0052378770
   14        0.0064901820
   15       -0.0554844620
   16        0.0053573060
   17       -0.3666768590
   18        0.6344113430
   19        0.0325683880
   20        0.7450394170
   21        0.0267701520
   22        0.0834902220
   23       -0.8923751310
   24       -0.3710449980
   25       -0.1023977060
   26       -0.0796972440
   27        0.0434504470
   28        0.1363878800
   29        0.0971886380
   30       -0.5642687990
   31        0.0054436140
   32       -0.0641493110
   33        0.0076779360
   34        0.0039124580
   35        0.0042956970
   36        0.2002006900
   37        0.0355804410
   38        0.0496510150
   39        0.0210652330
   40        0.0258594700
 Sym= A
 Ene=         25.00000000
 Spin= Alpha
 Occup=       -0.00000000
    1        0.0594157020
    2        0.0073473830
    3       -1.1102463800
    4        0.0193268420
    5        0.0011372520
    6       -0.0679919600
    7       -0.1230497280
    8       -0.0232326520
    9       -0.7099679760
   10        0.0832545880
   11        0.1487185120
   12        0.0564066700
   13        0.0020292210
   14       -0.0649799210
   15       -0.0064463210
   16       -0.0676884550
   17       -0.5326412860
   18        1.9324902600
   19        0.0044559360
   20       -0.0135811380
   21        0.6216040230
   22       -0.3720414070
   23        0.1697538420
   24       -1.3029516200
   25        0.1805539630
   26       -0.3676253330
   27       -0.2917344350
   28       -0.1604555160
   29       -0.7381627570
   30        0.0415728110
   31        0.0958657120
   32       -0.0717067760
   33        0.0035810790