[Molden Format]
 Molden2AIM, Version 5.0.2 (10/09/2020)           Time: Tue Apr  6 00:21:31 2021

[Atoms] AU
  O      1    8        0.0000000000        0.0000000000        0.0000000000
  O      2    8        0.0000000000        0.0000000000        2.7620617201
  H      3    1        1.7632934844        0.0000000000       -0.4771921162
  H      4    1        0.8816467365        1.5270569365        3.2392538382
[GTO]
    1    0
 S    6  1.0
    0.5484672000D+04    0.1831100116D-02
    0.8252350000D+03    0.1395010088D-01
    0.1880470000D+03    0.6844510432D-01
    0.5296450000D+02    0.2327140147D+00
    0.1689757000D+02    0.4701930297D+00
    0.5799635000D+01    0.3585210226D+00
 S    3  1.0
    0.1553962000D+02   -0.1107766479D+00
    0.3599934000D+01   -0.1480255295D+00
    0.1013762000D+01    0.1130766406D+01
 S    1  1.0
    0.2700058000D+00    0.1000000000D+01
 P    3  1.0
    0.1553962000D+02    0.7087426029D-01
    0.3599934000D+01    0.3397528096D+00
    0.1013762000D+01    0.7271585926D+00
 P    1  1.0
    0.2700058000D+00    0.1000000000D+01
 D    1  1.0
    0.8000000000D+00    0.1000000000D+01

    2    0
 S    6  1.0
    0.5484672000D+04    0.1831100116D-02
    0.8252350000D+03    0.1395010088D-01
    0.1880470000D+03    0.6844510432D-01
    0.5296450000D+02    0.2327140147D+00
    0.1689757000D+02    0.4701930297D+00
    0.5799635000D+01    0.3585210226D+00
 S    3  1.0
    0.1553962000D+02   -0.1107766479D+00
    0.3599934000D+01   -0.1480255295D+00
    0.1013762000D+01    0.1130766406D+01
 S    1  1.0
    0.2700058000D+00    0.1000000000D+01
 P    3  1.0
    0.1553962000D+02    0.7087426029D-01
    0.3599934000D+01    0.3397528096D+00
    0.1013762000D+01    0.7271585926D+00
 P    1  1.0
    0.2700058000D+00    0.1000000000D+01
 D    1  1.0
    0.8000000000D+00    0.1000000000D+01

    3    0
 S    3  1.0
    0.1873114000D+02    0.3349460926D-01
    0.2825394000D+01    0.2347270649D+00
    0.6401217000D+00    0.8137572250D+00
 S    1  1.0
    0.1612778000D+00    0.1000000000D+01
 P    1  1.0
    0.1100000000D+01    0.1000000000D+01

    4    0
 S    3  1.0
    0.1873114000D+02    0.3349460926D-01
    0.2825394000D+01    0.2347270649D+00
    0.6401217000D+00    0.8137572250D+00
 S    1  1.0
    0.1612778000D+00    0.1000000000D+01
 P    1  1.0
    0.1100000000D+01    0.1000000000D+01

[MO]
 Sym= A
 Ene=          1.00000000
 Spin= Alpha
 Occup=        2.00000000
    1        1.0108751700
    2       -0.0201421120
    3       -0.0493796560
    4        0.0031567620
    5        0.0002173930
    6        0.0024050130
    7        0.0008520950
    8       -0.0001404610
    9       -0.0015343890
   10        0.0010138720
   11        0.0005357860
   12       -0.0015496580
   13       -0.0000556590
   14       -0.0001830000
   15       -0.0000954850
   16        0.0006873250
   17       -0.0028005400
   18        0.0040162690
   19       -0.0001613130
   20       -0.0001806420
   21        0.0074203260
   22       -0.0003030170
   23       -0.0001842240
   24        0.0008575800
   25        0.0005955070
   26        0.0008595770
   27       -0.0014550840
   28        0.0001734180
   29        0.0000891750
   30        0.0002967840
   31       -0.0098439110
   32        0.0027270700
   33        0.0031543920
   34        0.0000087200
   35       -0.0005457620
   36       -0.0002137590
   37        0.0005517830
   38        0.0000632180
   39        0.0001191120
   40        0.0001826240
 Sym= A
 Ene=          2.00000000
 Spin= Alpha
 Occup=        2.00000000
    1        0.0006872090
    2       -0.0028008470
    3        0.0040160160
    4       -0.0002372590
    5       -0.0000496450
    6       -0.0074204230
    7       -0.0003107080
    8       -0.0001704270
    9       -0.0008575990
   10        0.0009237110
   11        0.0005314070
   12       -0.0014551170
   13       -0.0000454340
   14       -0.0003010610
   15        0.0000711550
   16        1.0108754400
   17       -0.0201429980
   18       -0.0493806830
   19        0.0017667130
   20        0.0026252970
   21       -0.0024050630
   22        0.0003047300
   23        0.0008086400
   24        0.0015343070
   25        0.0006137510
   26        0.0009359400
   27       -0.0015496910
   28        0.0002109450
   29        0.0001743450
   30        0.0001114220
   31       -0.0002137620
   32        0.0005518060
   33        0.0001341640
   34       -0.0000040940
   35       -0.0001826290
   36       -0.0098437380
   37        0.0027272620
   38        0.0015852070
   39        0.0027275570
   40        0.0005457570
 Sym= A
 Ene=          3.00000000
 Spin= Alpha
 Occup=        1.99999700
    1       -0.1010211610
    2        0.3485234340
    3        0.4106043880
    4       -0.2687237630
    5        0.4112296430
    6       -0.1363983880
    7       -0.1774922100
    8        0.2990643480
    9       -0.0988912200
   10       -0.0110823780
   11        0.0109079590
   12        0.0001744170
   13        0.0140953580
   14       -0.0066772140
   15        0.0046512300
   16        0.0081953890
   17       -0.0206643720
   18       -0.0315336790
   19        0.0160245930
   20       -0.0212370980
   21        0.0453613250
   22        0.0219126260
   23       -0.0361667580
   24        0.0451225560
   25       -0.0011410480
   26       -0.0024168870
   27        0.0035579340
   28       -0.0005706370
   29        0.0063427570
   30       -0.0081539620
   31       -0.0442961820
   32       -0.0617607730
   33       -0.0062011890
   34        0.0128440340
   35       -0.0040197110
   36       -0.0072133660
   37        0.0087652600
   38        0.0007629200
   39       -0.0011479850
   40        0.0009679190
 Sym= A
 Ene=          4.00000000
 Spin= Alpha
 Occup=        2.00000300
    1       -0.0798732620
    2        0.2802265790
    3        0.3177835860
    4       -0.2080260030
    5       -0.5250946840
    6       -0.0946046560
    7       -0.1402201280
    8       -0.3820987080
    9       -0.0728137890
   10       -0.0073150450
   11        0.0060729860
   12        0.0012420580
   13       -0.0189115960
   14       -0.0060797820
   15       -0.0068217520
   16        0.0092494800
   17       -0.0211674550
   18       -0.0477961400
   19        0.0051358540
   20        0.0142695270
   21        0.0297933800
   22        0.0072966810
   23        0.0235642570
   24        0.0322982610
   25       -0.0022426680
   26       -0.0000217130
   27        0.0022643800
   28        0.0007214850
   29        0.0063425910
   30        0.0138845860
   31       -0.0310183720
   32       -0.0519814890
   33       -0.0048378730
   34       -0.0168006300
   35       -0.0026468140
   36        0.0272253430
   37        0.0300752660
   38       -0.0002065120
   39       -0.0002428190
   40        0.0018270860
 Sym= A
 Ene=          5.00000000
 Spin= Alpha
 Occup=        1.99999800
    1        0.0081884880
    2       -0.0206486050
    3       -0.0315030960
    4       -0.0103774880
    5        0.0244833730
    6       -0.0453419700
    7       -0.0203734270
    8        0.0370536370
    9       -0.0451002560
   10       -0.0025250460
   11       -0.0010309910
   12        0.0035560360
   13        0.0003519680
   14        0.0038998970
   15       -0.0095711320
   16       -0.1009659670
   17        0.3483335850
   18        0.4103925990
   19        0.2221300090
   20       -0.4384004310
   21        0.1363349940
   22        0.1705079270
   23       -0.3032962780
   24        0.0988438230
   25        0.0159897390
   26       -0.0161637320
   27        0.0001739910
   28       -0.0039373820
   29       -0.0006956640
   30        0.0081077770
   31       -0.0072235300
   32        0.0087491110
   33       -0.0006135510
   34        0.0012342230
   35       -0.0009664540
   36       -0.0442848720
   37       -0.0617302910
   38        0.0080335950
   39       -0.0117935070
   40        0.0040183100
 Sym= A
 Ene=          6.00000000
 Spin= Alpha
 Occup=        1.99999800
    1        0.0092564190
    2       -0.0211868150
    3       -0.0478237990
    4        0.0149300310
    5       -0.0026463690
    6       -0.0298337390
    7        0.0240483570
    8       -0.0054224060
    9       -0.0323347720
   10       -0.0000363910
   11       -0.0022292710
   12        0.0022656620
   13       -0.0007490770
   14       -0.0151929270
   15        0.0014444630
   16       -0.0799411880
   17        0.2804665880
   18        0.3180601600
   19       -0.5585997840
   20        0.0821314400
   21        0.0947082390
   22       -0.4008979210
   23        0.0694309500
   24        0.0728853670
   25       -0.0114466970
   26        0.0102064070
   27        0.0012402920
   28       -0.0161507530
   29        0.0089469760
   30        0.0018587680
   31        0.0272268870
   32        0.0300845540
   33       -0.0003146810
   34       -0.0000561430
   35       -0.0018278420
   36       -0.0310263790
   37       -0.0520138910
   38       -0.0169635310
   39        0.0042009230
   40        0.0026490030
 Sym= A
 Ene=          7.00000000
 Spin= Alpha
 Occup=        1.99999800
    1       -0.0320940120
    2        0.1366054850
    3        0.0827855130
    4        0.0235091350
    5        0.0002432450
    6        0.3946916320
    7        0.0356971370
    8        0.0040893300
    9        0.2470365380
   10       -0.0197978040
   11       -0.0172003720
   12        0.0369981820
   13        0.0008979300
   14        0.0169558910
   15        0.0028846040
   16       -0.0320920540
   17        0.1366003840
   18        0.0827848530
   19        0.0119423950
   20        0.0202195710
   21       -0.3946927480
   22        0.0213742240
   23        0.0288592690
   24       -0.2470348790
   25       -0.0171764460
   26       -0.0198225190
   27        0.0369989700
   28       -0.0008515510
   29       -0.0109763490
   30       -0.0132424260
   31       -0.0224073600
   32       -0.0435231810
   33       -0.0010482250
   34       -0.0004663830
   35        0.0098500730
   36       -0.0224242830
   37       -0.0435311420
   38       -0.0009279930
   39       -0.0006732260
   40       -0.0098495290
 Sym= A
 Ene=          8.00000000
 Spin= Alpha
 Occup=        2.00000200
    1       -0.0575350730
    2        0.2227014980
    3        0.1471051850
    4        0.4432533770
    5       -0.0012305250
    6       -0.0953289750
    7        0.2580249800
    8        0.0007116240
    9       -0.0296015960
   10        0.0272359350
   11       -0.0112372870
   12       -0.0159986490
   13        0.0013166760
   14       -0.0015409130
   15        0.0002246240
   16        0.0063544250
   17       -0.0148865350
   18       -0.0254265750
   19       -0.0199080800
   20       -0.0002453370
   21        0.0434237090
   22       -0.0320659540
   23        0.0032534770
   24        0.0449501040
   25        0.0004920110
   26       -0.0010094210
   27        0.0005174080
   28       -0.0006340060
   29       -0.0083790950
   30        0.0006012690
   31        0.3127789040
   32        0.1177469990
   33       -0.0330016150
   34        0.0006752860
   35        0.0086942130
   36       -0.0054449060
   37       -0.0082801500
   38       -0.0007153930
   39        0.0004621270
   40        0.0018611730
 Sym= A
 Ene=          9.00000000
 Spin= Alpha
 Occup=        2.00000300
    1        0.0063519620
    2       -0.0148781740
    3       -0.0254132900
    4       -0.0101993120
    5       -0.0171184500
    6       -0.0434030660
    7       -0.0132360610
    8       -0.0293955730
    9       -0.0449388500
   10       -0.0011124880
   11        0.0005924330
   12        0.0005200550
   13        0.0004336360
   14        0.0036709130
   15        0.0075572620
   16       -0.0575339580
   17        0.2226992970
   18        0.1470992670
   19        0.2206078740
   20        0.3844657620
   21        0.0953061990
   22        0.1296650770
   23        0.2230879090
   24        0.0295864840
   25       -0.0006309860
   26        0.0166277940
   27       -0.0159968070
   28        0.0198953320
   29        0.0005754060
   30        0.0014459870
   31       -0.0054659920
   32       -0.0082925230
   33        0.0000443420
   34       -0.0008499720
   35       -0.0018611780
   36        0.3127791820
   37        0.1177477520
   38       -0.0159146400
   39       -0.0289188750
   40       -0.0086948080
 Sym= A
 Ene=         10.00000000
 Spin= Alpha
 Occup=       -0.00000000
    1       -0.0610997440
    2        0.2743909920
    3        0.1105007500
    4       -0.0133137900
    5        0.0032570210
    6        0.6068247100
    7        0.0219697270
    8        0.0108473530
    9        0.3646174560
   10       -0.0077044930
   11       -0.0007845050
   12        0.0542880870
   13        0.0008019790
   14        0.0223012690
   15        0.0049672420
   16        0.0611217500
   17       -0.2744312270
   18       -0.1107935810
   19        0.0034990530
   20        0.0128274340
   21        0.6067114000
   22       -0.0201789890
   23       -0.0135536760
   24        0.3647211120
   25        0.0018991920
   26        0.0064802620
   27       -0.0540935150
   28        0.0029933170
   29        0.0153626620
   30        0.0168518880
   31        0.0175947750
   32       -0.0107098050
   33       -0.0072804840
   34       -0.0001217660
   35        0.0041333910
   36       -0.0175218110
   37        0.0108736840
   38        0.0034319060
   39        0.0058979200
   40        0.0038684850
 Sym= A
 Ene=         11.00000000
 Spin= Alpha
 Occup=       -0.00000000
    1        0.0810261750
    2       -0.3763338390
    3       -0.3098113670
    4       -0.5725588460
    5        0.0010928060
    6        0.1809751970
    7       -0.4454049100
    8       -0.0008583880
    9        0.1201134500
   10       -0.0717553620
   11        0.0143810050
   12        0.0197333740
   13       -0.0013980220
   14        0.0193203490
   15        0.0004467020
   16        0.0045240690
   17       -0.0181059450
   18       -0.0389891010
   19        0.0466881400
   20        0.0051093130
   21        0.0011309610
   22        0.0397045820
   23       -0.0040133950
   24       -0.0018351790
   25        0.0070060890
   26        0.0025375110
   27       -0.0065732140
   28        0.0004743410
   29        0.0001062380
   30       -0.0003578610
   31        1.0238811700
   32        0.3955418220
   33       -0.0659640940
   34        0.0016586980
   35        0.0197055430
   36       -0.0166469490
   37        0.0079615520
   38       -0.0000039400
   39        0.0005242400
   40       -0.0012554280
 Sym= A
 Ene=         12.00000000
 Spin= Alpha
 Occup=        0.00000000
    1        0.0045440910
    2       -0.0180929580
    3       -0.0393177360
    4        0.0279870380
    5        0.0379874650
    6       -0.0012231990
    7        0.0160235980
    8        0.0363185770
    9        0.0018803210
   10        0.0040384010
   11        0.0057054380
   12       -0.0066876910
   13        0.0024991850
   14        0.0001703580
   15       -0.0003324090
   16        0.0809270990
   17       -0.3758180740
   18       -0.3090090040
   19       -0.2848043960
   20       -0.4958614640
   21       -0.1807995170
   22       -0.2237131070
   23       -0.3853055290
   24       -0.1201581930
   25       -0.0084283140
   26       -0.0495654230
   27        0.0199664120
   28       -0.0440170810
   29       -0.0101742410
   30       -0.0168082410
   31       -0.0164991700
   32        0.0082037940
   33        0.0004534540
   34       -0.0002796580
   35        0.0013260200
   36        1.0246573100
   37        0.3941922780
   38       -0.0306873270
   39       -0.0568774980
   40       -0.0194069460
 Sym= A
 Ene=         13.00000000
 Spin= Alpha
 Occup=       -0.00000000
    1       -0.0451412520
    2       -0.6603231280
    3        1.8075770100
    4        0.0687286160
    5       -0.7513188700
    6       -0.2238833850
    7       -0.0352827950
    8        0.8743381480
    9        0.9900808830
   10       -0.3405116830
   11       -0.3616406220
   12        0.1533478280
   13        0.0102320370
   14        0.2664683300
   15       -0.3179306690
   16        0.0625832780
   17        0.0503520210
   18       -1.0709647900
   19        0.0041736770
   20       -0.0111899850
   21        0.0633358430
   22       -0.0220839130
   23       -0.0877487440
   24        0.7785505220
   25        0.1804927840
   26        0.1747086600
   27       -0.0568308920
   28       -0.0063668930
   29        0.0393167650
   30       -0.0208640920
   31        0.0464660050
   32       -0.1308812590
   33       -0.0338967270
   34       -0.0206111570
   35       -0.0369826600
   36        0.0553781200
   37       -0.1302048080
   38        0.0107008730
   39        0.0146018230
   40       -0.0110103600
 Sym= A
 Ene=         14.00000000
 Spin= Alpha
 Occup=        0.00000000
    1        0.0708027440
    2       -0.1030351280
    3       -0.6819568740
    4        0.5725380790
    5        0.2096329320
    6        0.1866232710
    7       -1.1072582000
    8       -0.2485790830
    9       -0.2012013150
   10        0.0533277440
   11        0.3418556890
   12       -0.0956717940
   13        0.0769450340
   14        0.7219828650
   15        0.0049777420
   16       -0.0136858000
   17        0.0260237100
   18        0.1959532280
   19        0.0260873760
   20        0.0057506020
   21       -0.0428655840
   22        0.0412639460
   23        0.0459027070
   24       -0.1340348270
   25       -0.0342448170
   26       -0.0401607710
   27        0.0293464920
   28       -0.0068816440
   29        0.0634787310
   30       -0.0038870180
   31        0.5489430400
   32        0.3356216290
   33       -0.0809732740
   34       -0.0067768870
   35       -0.0598392770
   36       -0.0107335330
   37        0.0140727770
   38        0.0008743770
   39       -0.0036535180
   40       -0.0085113110
 Sym= A
 Ene=         15.00000000
 Spin= Alpha
 Occup=        0.00000000
    1       -0.0738887630
    2       -1.0569679800
    3        3.0084863500
    4       -0.2976208730
    5        0.1529606820
    6       -0.4067357970
    7        0.8755091240
    8       -0.1312211500
    9        1.3039121000
   10       -0.2163058220
   11       -0.3698689340
   12       -0.1564681020
   13       -0.0207721960
   14        0.2992173510
   15        0.5715028280
   16        0.0845069250
   17        0.1003241060
   18       -1.5597845400
   19       -0.0026553820
   20        0.0258153320
   21        0.0559395030
   22       -0.2125487930
   23       -0.1453514010
   24        1.0014292100
   25        0.2387195930
   26        0.2042437140
   27        0.0013408700
   28       -0.0312869360
   29        0.0725319940
   30        0.0724321470
   31       -0.3840918880
   32       -0.5747052710
   33        0.0237775140
   34        0.0191340200
   35       -0.0802334420
   36        0.1361176070
   37       -0.0634868590
   38        0.0118616380
   39        0.0152772810
   40       -0.0380899500
 Sym= A
 Ene=         16.00000000
 Spin= Alpha
 Occup=        0.00000000
    1       -0.0487449950
    2       -0.0622208130
    3        0.5509825490
    4       -0.3199643520
    5       -0.0944885320
    6        0.5498530770
    7        0.4877886490
    8        0.1376418770
    9       -0.7358257400
   10       -0.5078155520
   11       -0.4542222500
   12        0.4122690220
   13        0.0038772810
   14        0.4278829380
   15        0.2309639480
   16        0.0104483490
   17        0.1207857870
   18       -0.1343569570
   19       -0.0135204250
   20       -0.0002970590
   21       -0.0123313240
   22       -0.1979957140
   23       -0.1662789930
   24       -0.0514799300
   25        0.0835078970
   26        0.0706291710
   27       -0.0688873970
   28       -0.0108271180
   29        0.0541956400
   30        0.0320982350
   31        0.0536344010
   32       -0.2963869990
   33       -0.1344407070
   34        0.0038767100
   35        0.0121081650
   36        0.1092015330
   37        0.1175147710
   38        0.0051429100
   39        0.0053810110
   40       -0.0086400790
 Sym= A
 Ene=         17.00000000
 Spin= Alpha
 Occup=        0.00000000
    1        0.0211096040
    2       -0.2736071360
    3        0.1671993960
    4       -0.0645396070
    5       -0.2216706560
    6        0.3546715260
    7        0.1191430100
    8        0.2736382120
    9       -0.7742140930
   10       -0.4609378910
   11        0.8570056040
   12       -0.5564633710
   13       -0.1495024970
   14       -0.1694941430
   15        0.1407504650
   16       -0.0366381320
   17        0.0443556140
   18        0.4976004130
   19       -0.0189421200
   20       -0.0083630970
   21       -0.1073054250
   22        0.0377431100
   23       -0.1114747260
   24       -0.3556564370
   25       -0.0782002100
   26       -0.1192508260
   27        0.0857986930
   28       -0.0005235970
   29       -0.0325503770
   30        0.0198394390
   31        0.1454754850
   32       -0.3246102160
   33       -0.0523658950
   34        0.0195343470
   35        0.0498963310
   36        0.0370748000
   37        0.0268060580
   38       -0.0110189130
   39       -0.0066060760
   40        0.0012699390
 Sym= A
 Ene=         18.00000000
 Spin= Alpha
 Occup=        0.00000000
    1       -0.4102528940
    2        0.2538753430
    3        2.8894591400
    4       -0.2499630870
    5       -0.0250727860
    6       -0.0761947750
    7        0.1058616850
    8        0.0324391640
    9        0.0587225850
   10       -1.5139184000
   11       -1.2886170000
   12       -1.6534364000
   13        0.2742922470
   14        0.1618161330
   15       -0.0173761610
   16       -0.0092268500
   17       -0.0829883160
   18       -0.0519444470
   19       -0.0128284320
   20       -0.0086209930
   21       -0.0202371150
   22        0.0009595610
   23        0.0051424620
   24       -0.1255058340
   25       -0.0986361440
   26       -0.1243527070
   27        0.3052027100
   28       -0.0158095760
   29        0.0033920370
   30       -0.0199285760
   31        0.3313821950
   32       -0.4038972540
   33       -0.3823556210
   34       -0.0361223080
   35        0.0715818220
   36        0.0562105690
   37       -0.0813107510
   38       -0.0114913440
   39       -0.0169622000
   40        0.0397088840
 Sym= A
 Ene=         19.00000000
 Spin= Alpha
 Occup=        0.00000000
    1       -0.1144579040
    2        0.1000390220
    3        0.7093175680
    4       -0.0191717850
    5        0.2260698210
    6       -0.2193405610
    7       -0.6092144630
    8       -0.2869296410
    9        0.8427402260
   10       -1.2441368200
   11       -0.2188229750
   12        0.1923875590
   13       -0.7182231120
   14        0.1672000760
   15       -0.1523106870
   16        0.0398688480
   17       -0.0449558790
   18       -0.6076364260
   19        0.0010682720
   20        0.0014443200
   21        0.0961882800
   22        0.1123718400
   23        0.1486996820
   24        0.4334630350
   25        0.1042312900
   26        0.0904319990
   27       -0.0244330590
   28        0.0285526190
   29       -0.0157662270
   30       -0.0264727130
   31        0.7581700310
   32        0.2359821560
   33       -0.2709147990
   34        0.0908634970
   35        0.0796259550
   36       -0.0526277920
   37       -0.0759576360
   38        0.0012788960
   39        0.0129027860
   40        0.0068112080
 Sym= A
 Ene=         20.00000000
 Spin= Alpha
 Occup=        0.00000000
    1       -0.0897518140
    2       -0.5406499720
    3        1.9008156300
    4        0.4918319760
    5       -0.1177423820
    6        0.1052195720
    7       -0.5518176910
    8        0.1791025730
    9        0.3554739280
   10       -0.3649755660
   11       -0.7581504660
   12        0.0146181850
   13       -0.0588767100
   14       -0.5673940060
   15        0.4923005360
   16        0.0475637630
   17        0.0801524720
   18       -0.8162377530
   19        0.0116212750
   20        0.0121094840
   21        0.0301600450
   22        0.2257971220
   23       -0.1449913500
   24        0.5290445900
   25        0.1419203720
   26        0.1357795190
   27       -0.0204817070
   28       -0.0057786670
   29       -0.0735361710
   30        0.0689833990
   31       -0.0624421190
   32       -0.0909593420
   33        0.0458328900
   34        0.0186261120
   35        0.0476744560
   36        0.0415735990
   37       -0.0452083960
   38        0.0000515970
   39        0.0153755520
   40       -0.0093934520
 Sym= A
 Ene=         21.00000000
 Spin= Alpha
 Occup=        0.00000000
    1       -0.0956603420
    2       -0.8759193170
    3        2.7445636600
    4       -0.0507347930
    5        0.2007007300
    6        0.2531727530
    7        0.9822858530
    8       -0.2697882940
    9       -0.3276260470
   10        0.3953122610
   11       -0.7846403580
   12       -0.6929461030
   13       -0.4134815830
   14       -0.1635231910
   15       -0.4170853700
   16        0.0104845380
   17        0.1205484930
   18       -0.3748623430
   19       -0.0060823640
   20       -0.0067483120
   21       -0.0736999500
   22       -0.0928091450
   23        0.1552471570
   24        0.2462185470
   25        0.0387189920
   26        0.0595090200
   27        0.0521912210
   28        0.0111896190
   29        0.0351069450
   30       -0.0619173130
   31       -0.9041701720
   32       -0.8225895260
   33        0.1672097200
   34        0.0443670780
   35       -0.0720254780
   36       -0.0158096830
   37       -0.0013425500
   38        0.0090685760
   39        0.0008671330
   40        0.0020723460
 Sym= A
 Ene=         22.00000000
 Spin= Alpha
 Occup=       -0.00000000
    1       -0.0339861160
    2       -0.8135784860
    3        2.0126480500
    4        0.0032720420
    5        0.3337274510
    6        0.0048272430
    7        0.0458912880
    8       -0.4318721460
    9        0.7375252130
   10       -0.7575504200
   11       -0.1402061340
   12        0.4059118220
   13        0.5445009990
   14       -0.1914317590
   15       -0.4285625190
   16        0.0624859600
   17        0.0839163660
   18       -1.0370686500
   19       -0.0094885810
   20       -0.0001699370
   21        0.0590610110
   22        0.1072154340
   23        0.2598259540
   24        0.8405161830
   25        0.2159051850
   26        0.2109072240
   27       -0.1303999960
   28       -0.0018561720
   29       -0.0223445540
   30       -0.0536772610
   31        0.0859264010
   32       -0.2647869900
   33       -0.0348508850
   34       -0.0755997490
   35        0.0394939580
   36       -0.0637568840
   37       -0.1327774880
   38        0.0127029050
   39        0.0211153260
   40       -0.0078967360
 Sym= A
 Ene=         23.00000000
 Spin= Alpha
 Occup=        0.00000000
    1        0.0614757760
    2        0.0504672470
    3       -1.0532919000
    4       -0.0068813920
    5        0.0127492660
    6       -0.0617784580
    7       -0.0800788090
    8        0.0270232560
    9       -0.7695853320
   10        0.1697560970
   11        0.1809464070
   12       -0.0570092940
   13       -0.0003849040
   14       -0.0018990970
   15       -0.0454057140
   16       -0.0427081660
   17       -0.6562925750
   18        1.7706797800
   19       -0.5983081750
   20        0.4595484920
   21        0.2171607420
   22        0.7093103180
   23       -0.5090585380
   24       -0.9772522360
   25       -0.3363785340
   26       -0.3488834750
   27        0.1487254850
   28        0.0123023310
   29        0.1369676200
   30       -0.3963181790
   31        0.0511347090
   32       -0.1300967940
   33        0.0198254160
   34        0.0024088200
   35        0.0114286890
   36        0.0656914260
   37       -0.1163404210
   38       -0.0311240640
   39       -0.0161820440
   40        0.0356791990
 Sym= A
 Ene=         24.00000000
 Spin= Alpha
 Occup=        0.00000000
    1       -0.0167615320
    2        0.0254235700
    3        0.2471033680
    4        0.0152625420
    5        0.0177600330
    6        0.0470821920
    7        0.0558558510
    8        0.0096463980
    9        0.1734284580
   10       -0.0532002380
   11       -0.0388521740
   12        0.0332795000
   13       -0.0004522340
   14       -0.0308685540
   15       -0.0565882710
   16        0.0728156430
   17       -0.0718263790
   18       -0.7613131570
   19        0.4751836900
   20        0.3719676660
   21       -0.1997081950
   22       -0.7723557690
   23       -0.8038489440
   24        0.2588511690
   25        0.3451889180
   26        0.0861074280
   27       -0.1028717380
   28       -0.1054969210
   29       -0.3868340370
   30       -0.6164128390
   31       -0.0096578070
   32        0.0215557200
   33       -0.0040767970
   34        0.0025347010
   35        0.0090771090
   36        0.5395599750
   37        0.3326464230
   38       -0.0397211270
   39       -0.0608987290
   40        0.0570910230
 Sym= A
 Ene=         25.00000000
 Spin= Alpha
 Occup=        0.00000000
    1        0.0852422610
    2        0.1016001610
    3       -1.5729607400
    4        0.0230374830
    5       -0.0156278490
    6       -0.0564811730
    7       -0.2352993280
    8       -0.1127149500
    9       -1.0116712100
   10        0.1913165320
   11        0.2565124200
   12        0.0004448410
   13        0.0016025130
   14       -0.1011097310
   15       -0.0276799870
   16       -0.0752838340
   17       -1.0647559300
   18        3.0406327200
   19       -0.0245360200
   20       -0.3361563420
   21        0.4095017150
   22        0.3377682140
   23        0.8321251740
   24       -1.3130153800
   25       -0.3542577290
   26       -0.2438496550
   27       -0.1559455140
   28        0.0678956960
   29       -0.6372862080
   30        0.0249330210
   31        0.1370818510
   32       -0.0649848920
   33        0.0212534820