[Molden Format]
 Molden2AIM, Version 5.0.2 (10/09/2020)           Time: Tue Apr  6 00:21:31 2021

[Atoms] AU
  O      1    8        0.0000000000        0.0000000000        0.0000000000
  O      2    8        0.0000000000        0.0000000000        2.7620617201
  H      3    1        1.7632934844        0.0000000000       -0.4771921162
  H      4    1       -1.1334231960        1.3507611636        3.2392538382
[GTO]
    1    0
 S    6  1.0
    0.5484672000D+04    0.1831100116D-02
    0.8252350000D+03    0.1395010088D-01
    0.1880470000D+03    0.6844510432D-01
    0.5296450000D+02    0.2327140147D+00
    0.1689757000D+02    0.4701930297D+00
    0.5799635000D+01    0.3585210226D+00
 S    3  1.0
    0.1553962000D+02   -0.1107766479D+00
    0.3599934000D+01   -0.1480255295D+00
    0.1013762000D+01    0.1130766406D+01
 S    1  1.0
    0.2700058000D+00    0.1000000000D+01
 P    3  1.0
    0.1553962000D+02    0.7087426029D-01
    0.3599934000D+01    0.3397528096D+00
    0.1013762000D+01    0.7271585926D+00
 P    1  1.0
    0.2700058000D+00    0.1000000000D+01
 D    1  1.0
    0.8000000000D+00    0.1000000000D+01

    2    0
 S    6  1.0
    0.5484672000D+04    0.1831100116D-02
    0.8252350000D+03    0.1395010088D-01
    0.1880470000D+03    0.6844510432D-01
    0.5296450000D+02    0.2327140147D+00
    0.1689757000D+02    0.4701930297D+00
    0.5799635000D+01    0.3585210226D+00
 S    3  1.0
    0.1553962000D+02   -0.1107766479D+00
    0.3599934000D+01   -0.1480255295D+00
    0.1013762000D+01    0.1130766406D+01
 S    1  1.0
    0.2700058000D+00    0.1000000000D+01
 P    3  1.0
    0.1553962000D+02    0.7087426029D-01
    0.3599934000D+01    0.3397528096D+00
    0.1013762000D+01    0.7271585926D+00
 P    1  1.0
    0.2700058000D+00    0.1000000000D+01
 D    1  1.0
    0.8000000000D+00    0.1000000000D+01

    3    0
 S    3  1.0
    0.1873114000D+02    0.3349460926D-01
    0.2825394000D+01    0.2347270649D+00
    0.6401217000D+00    0.8137572250D+00
 S    1  1.0
    0.1612778000D+00    0.1000000000D+01
 P    1  1.0
    0.1100000000D+01    0.1000000000D+01

    4    0
 S    3  1.0
    0.1873114000D+02    0.3349460926D-01
    0.2825394000D+01    0.2347270649D+00
    0.6401217000D+00    0.8137572250D+00
 S    1  1.0
    0.1612778000D+00    0.1000000000D+01
 P    1  1.0
    0.1100000000D+01    0.1000000000D+01

[MO]
 Sym= A
 Ene=          1.00000000
 Spin= Alpha
 Occup=        2.00000000
    1        1.0107688300
    2       -0.0197174670
    3       -0.0490301950
    4        0.0029097450
    5        0.0002272190
    6        0.0024024430
    7        0.0011728100
    8       -0.0001547040
    9       -0.0015938480
   10        0.0009740190
   11        0.0005664810
   12       -0.0015405000
   13        0.0000817560
   14       -0.0000517100
   15       -0.0000953640
   16        0.0007182000
   17       -0.0028200250
   18        0.0036825510
   19        0.0001000860
   20       -0.0001895660
   21        0.0074130540
   22        0.0000655660
   23       -0.0003121350
   24        0.0008411200
   25        0.0006496880
   26        0.0007938710
   27       -0.0014435590
   28       -0.0001923460
   29       -0.0003102410
   30        0.0002750800
   31       -0.0099763420
   32        0.0025475150
   33        0.0031248810
   34        0.0000134190
   35       -0.0005172430
   36       -0.0000761270
   37        0.0009053090
   38       -0.0000806280
   39        0.0000821770
   40        0.0001976950
 Sym= A
 Ene=          2.00000000
 Spin= Alpha
 Occup=        2.00000000
    1        0.0007184010
    2       -0.0028200660
    3        0.0036823100
    4       -0.0002087050
    5       -0.0000451630
    6       -0.0074129580
    7       -0.0002818240
    8       -0.0001504230
    9       -0.0008411580
   10        0.0008980770
   11        0.0005454660
   12       -0.0014435440
   13        0.0000493310
   14       -0.0004104930
   15        0.0000617110
   16        1.0107686000
   17       -0.0197166200
   18       -0.0490294390
   19       -0.0016957330
   20        0.0023758220
   21       -0.0024023290
   22       -0.0008719730
   23        0.0008002580
   24        0.0015937920
   25        0.0006655520
   26        0.0008749660
   27       -0.0015405180
   28       -0.0002176500
   29        0.0000396030
   30        0.0001009110
   31       -0.0000759740
   32        0.0009053670
   33        0.0001137670
   34       -0.0000091540
   35       -0.0001976880
   36       -0.0099756750
   37        0.0025476960
   38       -0.0019984740
   39        0.0024022240
   40        0.0005172220
 Sym= A
 Ene=          3.00000000
 Spin= Alpha
 Occup=        2.00000000
    1       -0.1250887050
    2        0.4303094880
    3        0.5048401720
    4       -0.3376391860
    5        0.1303725080
    6       -0.1685386570
    7       -0.2298423310
    8        0.0966356860
    9       -0.1216505830
   10       -0.0119551700
   11        0.0116199990
   12        0.0003351730
   13        0.0027221410
   14       -0.0095294280
   15        0.0019212080
   16        0.0098039530
   17       -0.0260822890
   18       -0.0323335280
   19        0.0190110990
   20       -0.0055950650
   21        0.0567391710
   22        0.0283721440
   23       -0.0093045730
   24        0.0577343340
   25       -0.0027960230
   26       -0.0013951240
   27        0.0041911480
   28        0.0016072170
   29        0.0071217350
   30       -0.0021744960
   31       -0.0541285310
   32       -0.0699117230
   33       -0.0071457570
   34        0.0040669680
   35       -0.0046655510
   36       -0.0130924430
   37        0.0028101330
   38        0.0004588370
   39        0.0002073570
   40        0.0017285620
 Sym= A
 Ene=          4.00000000
 Spin= Alpha
 Occup=        1.99999800
    1       -0.0265968430
    2        0.0942846720
    3        0.1043976280
    4       -0.0661666860
    5       -0.6537196480
    6       -0.0251186860
    7       -0.0414518840
    8       -0.4763723090
    9       -0.0216526580
   10       -0.0009399000
   11        0.0001424750
   12        0.0007974260
   13       -0.0214435270
   14       -0.0006992480
   15       -0.0076709580
   16        0.0043014630
   17       -0.0084712980
   18       -0.0281563920
   19        0.0106910590
   20        0.0255859360
   21        0.0077817340
   22        0.0171281300
   23        0.0405176990
   24        0.0091624950
   25       -0.0012587190
   26        0.0004821170
   27        0.0007766030
   28       -0.0015454890
   29        0.0001050210
   30        0.0153830850
   31       -0.0111797930
   32       -0.0206074280
   33       -0.0012314800
   34       -0.0206775720
   35       -0.0003751050
   36        0.0213188530
   37        0.0235156380
   38        0.0011332560
   39        0.0005119820
   40        0.0005975650
 Sym= A
 Ene=          5.00000000
 Spin= Alpha
 Occup=        1.99999900
    1        0.0098145420
    2       -0.0261036610
    3       -0.0324016820
    4       -0.0164900360
    5        0.0110347180
    6       -0.0567578420
    7       -0.0253249920
    8        0.0158548650
    9       -0.0577575810
   10       -0.0033428240
   11       -0.0008508330
   12        0.0041936570
   13        0.0010778710
   14        0.0062143390
   15       -0.0040820610
   16       -0.1251578430
   17        0.4305519550
   18        0.5051044920
   19        0.3157541030
   20       -0.1759966320
   21        0.1686018940
   22        0.2209229580
   23       -0.1147817190
   24        0.1217041120
   25       -0.0003976520
   26        0.0000609090
   27        0.0003367430
   28        0.0138688200
   29       -0.0075828380
   30        0.0060787210
   31       -0.0130476350
   32        0.0028650370
   33       -0.0001365750
   34        0.0004883960
   35       -0.0017303060
   36       -0.0541443050
   37       -0.0699588420
   38        0.0076721590
   39       -0.0028962830
   40        0.0046660760
 Sym= A
 Ene=          6.00000000
 Spin= Alpha
 Occup=        1.99999900
    1        0.0042769240
    2       -0.0084074460
    3       -0.0280747000
    4        0.0127663610
    5        0.0245842440
    6       -0.0076388580
    7        0.0200897750
    8        0.0391094350
    9       -0.0090163570
   10        0.0010891160
   11       -0.0018552610
   12        0.0007661460
   13        0.0007180010
   14       -0.0117313350
   15       -0.0099587420
   16       -0.0262811190
   17        0.0932018970
   18        0.1031349880
   19       -0.4590108130
   20       -0.4704772770
   21        0.0246958510
   22       -0.3388140160
   23       -0.3376897040
   24        0.0213503790
   25        0.0179851550
   26       -0.0187826710
   27        0.0007975170
   28       -0.0031408540
   29        0.0054458200
   30        0.0054512190
   31        0.0213487030
   32        0.0235072780
   33       -0.0003360030
   34        0.0011948040
   35       -0.0005932620
   36       -0.0110663350
   37       -0.0204407370
   38       -0.0150686790
   39       -0.0142259940
   40        0.0003641610
 Sym= A
 Ene=          7.00000000
 Spin= Alpha
 Occup=        1.99999800
    1       -0.0321070950
    2        0.1368430330
    3        0.0809088930
    4        0.0224185650
    5        0.0010332910
    6        0.3951189020
    7        0.0289758200
    8        0.0043415460
    9        0.2480584120
   10       -0.0200683680
   11       -0.0171429590
   12        0.0372113230
   13       -0.0005434730
   14        0.0134264290
   15        0.0027739180
   16       -0.0321052160
   17        0.1368345840
   18        0.0809009380
   19       -0.0136142500
   20        0.0178270540
   21       -0.3951207410
   22       -0.0152980300
   23        0.0249809490
   24       -0.2480583230
   25       -0.0178879290
   26       -0.0193238470
   27        0.0372117750
   28        0.0015690670
   29        0.0065054530
   30       -0.0120682670
   31       -0.0181155430
   32       -0.0431571680
   33       -0.0010360560
   34       -0.0002374460
   35        0.0093489880
   36       -0.0181234240
   37       -0.0431596210
   38        0.0004828360
   39       -0.0009457370
   40       -0.0093487550
 Sym= A
 Ene=          8.00000000
 Spin= Alpha
 Occup=        2.00000100
    1       -0.0597416560
    2        0.2306222490
    3        0.1551545200
    4        0.4423940870
    5        0.0039027980
    6       -0.0908712380
    7        0.2603464700
    8        0.0024201440
    9       -0.0300468350
   10        0.0258012550
   11       -0.0103514990
   12       -0.0154497590
   13        0.0011152530
   14       -0.0009744630
   15       -0.0007093300
   16        0.0080107020
   17       -0.0162005540
   18       -0.0427221180
   19       -0.0142310940
   20       -0.0063402620
   21        0.0398391220
   22       -0.0268590420
   23       -0.0088770670
   24        0.0421714820
   25        0.0009315200
   26       -0.0015548750
   27        0.0006233560
   28       -0.0004443990
   29       -0.0100328970
   30        0.0016492370
   31        0.3098644170
   32        0.1078562010
   33       -0.0334717420
   34        0.0002863820
   35        0.0082954630
   36        0.0139338630
   37        0.0106416850
   38       -0.0003436480
   39       -0.0006045510
   40        0.0010252660
 Sym= A
 Ene=          9.00000000
 Spin= Alpha
 Occup=        2.00000100
    1        0.0080100270
    2       -0.0161936740
    3       -0.0427242430
    4        0.0043294770
    5       -0.0149753600
    6       -0.0398275270
    7        0.0104897030
    8       -0.0262786840
    9       -0.0421609980
   10       -0.0001469130
   11       -0.0004763750
   12        0.0006232890
   13       -0.0014906250
   14       -0.0077124190
   15        0.0066255570
   16       -0.0597412260
   17        0.2306146690
   18        0.1551413290
   19       -0.2814220410
   20        0.3413769770
   21        0.0908561390
   22       -0.1655292520
   23        0.2009738140
   24        0.0300380350
   25        0.0036360090
   26        0.0118127520
   27       -0.0154487620
   28       -0.0203632950
   29       -0.0000836270
   30        0.0012024540
   31        0.0139561950
   32        0.0106506790
   33       -0.0002442230
   34       -0.0006520180
   35       -0.0010243360
   36        0.3098665080
   37        0.1078569230
   38        0.0217332350
   39       -0.0254571650
   40       -0.0082958720
 Sym= A
 Ene=         10.00000000
 Spin= Alpha
 Occup=        0.00000000
    1       -0.0606825490
    2        0.2782731050
    3        0.0957078520
    4       -0.0153527870
    5        0.0036356330
    6        0.6071196190
    7        0.0017600400
    8        0.0100487790
    9        0.3639753050
   10       -0.0078219480
   11        0.0010595010
   12        0.0566530700
   13       -0.0007571450
   14        0.0159526140
   15        0.0046697070
   16        0.0607280020
   17       -0.2781918940
   18       -0.0965114710
   19       -0.0124297950
   20        0.0091990760
   21        0.6069131640
   22       -0.0063803670
   23       -0.0080463740
   24        0.3640914320
   25        0.0020240990
   26        0.0047999610
   27       -0.0564524040
   28       -0.0047205110
   29       -0.0068092490
   30        0.0152983520
   31        0.0265808490
   32       -0.0042910200
   33       -0.0070822890
   34        0.0000369090
   35        0.0053068520
   36       -0.0262906820
   37        0.0047099780
   38       -0.0041588460
   39        0.0049520610
   40        0.0048499150
 Sym= A
 Ene=         11.00000000
 Spin= Alpha
 Occup=        0.00000000
    1        0.0815010450
    2       -0.3791812410
    3       -0.3059799390
    4       -0.5688890340
    5       -0.0028440060
    6        0.1743613300
    7       -0.4433960070
    8       -0.0020118040
    9        0.1188932450
   10       -0.0724669480
   11        0.0127545470
   12        0.0182532830
   13       -0.0009558710
   14        0.0189983760
   15        0.0007436210
   16        0.0024830070
   17       -0.0164287870
   18       -0.0224697760
   19        0.0369324970
   20        0.0107781370
   21        0.0013536460
   22        0.0395767690
   23        0.0062422110
   24        0.0007756420
   25        0.0042740470
   26        0.0027873300
   27       -0.0075988180
   28        0.0004619810
   29        0.0003383040
   30       -0.0002229630
   31        1.0356956000
   32        0.3828941260
   33       -0.0678632490
   34        0.0008988860
   35        0.0195166420
   36       -0.0209240880
   37       -0.0011918410
   38       -0.0009546700
   39        0.0013642570
   40        0.0000008430
 Sym= A
 Ene=         12.00000000
 Spin= Alpha
 Occup=       -0.00000000
    1        0.0024868390
    2       -0.0164816220
    3       -0.0225063410
    4       -0.0154356090
    5        0.0352984520
    6       -0.0015155410
    7       -0.0207573830
    8        0.0343073690
    9       -0.0007759080
   10        0.0031625600
   11        0.0041005330
   12       -0.0078134110
   13       -0.0008150100
   14        0.0004314870
   15       -0.0001892380
   16        0.0813473060
   17       -0.3783651480
   18       -0.3049683420
   19        0.3626893880
   20       -0.4368253120
   21       -0.1741012410
   22        0.2838798360
   23       -0.3412125620
   24       -0.1190258660
   25       -0.0220954090
   26       -0.0386707890
   27        0.0185521720
   28        0.0490894250
   29        0.0119672050
   30       -0.0154607320
   31       -0.0210710890
   32       -0.0010460920
   33        0.0017609780
   34        0.0001677560
   35       -0.0000391780
   36        1.0368516600
   37        0.3813779090
   38        0.0429280710
   39       -0.0498625750
   40       -0.0189634740
 Sym= A
 Ene=         13.00000000
 Spin= Alpha
 Occup=        0.00000000
    1       -0.0266104650
    2       -0.8766239770
    3        2.0033716400
    4        0.4206311100
    5       -0.5634471020
    6       -0.2065748210
    7       -0.6402381570
    8        0.6606560470
    9        1.1910983000
   10       -0.4345786420
   11       -0.3308932210
   12        0.2223561660
   13        0.1090021660
   14        0.2796497860
   15       -0.1684163340
   16        0.0739607870
   17        0.0702776330
   18       -1.2713647900
   19        0.0110671280
   20       -0.0082258200
   21        0.0734309690
   22        0.0369534460
   23       -0.0604957780
   24        0.9555269330
   25        0.2135089670
   26        0.2078624100
   27       -0.0767869840
   28        0.0015833750
   29        0.0227355000
   30       -0.0050188370
   31        0.2536643530
   32        0.0097656930
   33       -0.0404206750
   34       -0.0269553440
   35       -0.0350933720
   36        0.0603793640
   37       -0.1887971960
   38       -0.0118710140
   39        0.0162247900
   40       -0.0103864430
 Sym= A
 Ene=         14.00000000
 Spin= Alpha
 Occup=        0.00000000
    1        0.0205149810
    2       -0.4495230480
    3        0.6042847120
    4        0.3322044710
    5        0.5733274840
    6        0.0136170790
    7       -0.5947771980
    8       -0.6531840160
    9        0.3597613940
   10       -0.1918681370
   11        0.0820156740
   12        0.0098879100
   13       -0.0542422350
   14        0.5356272630
   15        0.4054559010
   16        0.0223029870
   17        0.0427215680
   18       -0.4123558340
   19        0.0108931370
   20        0.0157473250
   21        0.0051054390
   22       -0.0125621540
   23        0.0658135650
   24        0.3223086530
   25        0.0719943670
   26        0.0616669200
   27       -0.0161413580
   28        0.0030834890
   29        0.0522958700
   30        0.0415652510
   31        0.3363687220
   32        0.0778123650
   33       -0.0687613130
   34        0.0259196490
   35       -0.0487286660
   36       -0.0021512160
   37       -0.0608245850
   38       -0.0008492560
   39        0.0081652320
   40       -0.0067009960
 Sym= A
 Ene=         15.00000000
 Spin= Alpha
 Occup=        0.00000000
    1       -0.0749632930
    2       -0.7068617660
    3        2.3569203400
    4       -0.1268900230
    5       -0.0136003720
    6       -0.5852670840
    7        0.6182403240
    8        0.0567710640
    9        1.3468165400
   10        0.0552230790
   11       -0.3796000190
   12       -0.2637074680
   13       -0.1394587890
   14       -0.5172075460
   15        0.4823634120
   16        0.0677871220
   17        0.0287813720
   18       -1.2583828600
   19       -0.0181317680
   20        0.0176177630
   21        0.0684646400
   22        0.0287941140
   23       -0.1377541220
   24        0.8225750980
   25        0.1510991800
   26        0.1457271620
   27        0.0379940740
   28        0.0351063470
   29       -0.0316322500
   30        0.0634318020
   31       -0.5484856880
   32       -0.3696617450
   33        0.1383880020
   34        0.0301889580
   35       -0.0173996050
   36        0.1015490270
   37       -0.0861266250
   38       -0.0050613030
   39        0.0063875320
   40       -0.0329965520
 Sym= A
 Ene=         16.00000000
 Spin= Alpha
 Occup=        0.00000000
    1       -0.0958700920
    2       -0.3392560590
    3        1.6822820400
    4       -0.1637653180
    5       -0.1138049420
    6        0.2583074820
    7        0.3657983270
    8        0.1752297170
    9        0.1247577140
   10       -0.5345544350
   11       -0.9775996930
   12        0.6133964220
   13       -0.1171150770
   14       -0.0310500510
   15        0.4655845000
   16        0.0566219370
   17        0.1293377360
   18       -0.9082423940
   19       -0.0101273370
   20        0.0087165540
   21        0.0624230820
   22       -0.0009368800
   23       -0.1790349680
   24        0.5271094020
   25        0.1999207920
   26        0.2018201710
   27       -0.1232378460
   28        0.0159212080
   29        0.0031238610
   30        0.0662574520
   31       -0.1264403080
   32       -0.2778863170
   33       -0.0532741270
   34        0.0255587360
   35        0.0291868170
   36        0.0928866630
   37        0.0279529850
   38       -0.0103187920
   39        0.0165615290
   40       -0.0150107310
 Sym= A
 Ene=         17.00000000
 Spin= Alpha
 Occup=        0.00000000
    1        0.0131927170
    2       -0.1405866560
    3       -0.0575302450
    4        0.1292202410
    5       -0.2993024930
    6        0.4903962100
    7       -0.1428218090
    8        0.3908686780
    9       -1.0797570300
   10       -0.2939583380
   11        0.5915407570
   12       -0.5625088120
   13       -0.1166402160
   14       -0.2803932510
   15        0.4103151190
   16       -0.0425438920
   17        0.0487485480
   18        0.6353981710
   19       -0.0028655110
   20       -0.0033974310
   21       -0.1187679810
   22        0.1721565560
   23       -0.2368188860
   24       -0.5228279920
   25       -0.1074652370
   26       -0.1375786140
   27        0.1100815380
   28        0.0245617840
   29       -0.0398398100
   30        0.0544213790
   31        0.1084047700
   32       -0.2419515190
   33       -0.0225531240
   34        0.0215348410
   35        0.0547796060
   36        0.1203524910
   37        0.0651576440
   38        0.0105177860
   39       -0.0092528470
   40       -0.0030762420
 Sym= A
 Ene=         18.00000000
 Spin= Alpha
 Occup=        0.00000000
    1       -0.3751091050
    2       -0.3747596900
    3        3.9732135500
    4       -0.4016080730
    5        0.0495665350
    6       -0.0068641220
    7        0.6862220850
    8       -0.0602928980
    9        0.2304419350
   10       -1.4251221000
   11       -1.2543248500
   12       -1.4143469900
   13        0.4967310490
   14        0.1999831850
   15       -0.0605029140
   16        0.0158400890
   17       -0.0063244520
   18       -0.4995512000
   19       -0.0121905820
   20       -0.0044990380
   21       -0.0152994520
   22       -0.1305683610
   23        0.0656663350
   24        0.2788002660
   25        0.0052045830
   26       -0.0132917960
   27        0.2065439050
   28       -0.0117602220
   29        0.0486635090
   30       -0.0177428670
   31        0.0106295230
   32       -0.7780583930
   33       -0.2949162770
   34       -0.0653878730
   35        0.0331638210
   36        0.0210505430
   37       -0.1346381450
   38        0.0014172080
   39        0.0012965450
   40        0.0351256150
 Sym= A
 Ene=         19.00000000
 Spin= Alpha
 Occup=       -0.00000000
    1        0.1085814370
    2       -0.9479161010
    3        1.1399034200
    4       -0.4717088370
    5        0.0569805400
    6        0.0595137220
    7        1.1225365200
    8       -0.0892211710
    9        0.3085853020
   10        0.0604280150
   11        0.5356060330
   12        0.5386812010
   13       -0.1068748660
   14        0.2479466900
   15       -0.2323212200
   16        0.0385783140
   17        0.1166905490
   18       -0.6684314160
   19       -0.0241236610
   20       -0.0028208160
   21        0.0099782020
   22       -0.2526650570
   23        0.1075932120
   24        0.5952638670
   25        0.1732396150
   26        0.1607775990
   27       -0.1607437790
   28       -0.0076963500
   29        0.0477895930
   30       -0.0210425600
   31       -0.3817801340
   32       -0.5612891400
   33        0.0860381900
   34        0.0084967410
   35       -0.0535703740
   36       -0.0689731120
   37       -0.0388160620
   38       -0.0094820490
   39        0.0159598620
   40       -0.0256548450
 Sym= A
 Ene=         20.00000000
 Spin= Alpha
 Occup=        0.00000000
    1       -0.2186658210
    2       -0.0896006690
    3        1.9985895000
    4       -0.0351224850
    5        0.1267938760
    6       -0.0619460350
    7       -0.1749939160
    8       -0.1801396650
    9        0.3770434740
   10       -1.1316496400
   11       -0.6880107750
   12       -0.6153045680
   13       -0.8135794910
   14       -0.0024087660
   15       -0.3340347610
   16        0.0162153150
   17       -0.0335123020
   18       -0.3461136900
   19        0.0013033440
   20       -0.0147490950
   21        0.0230263790
   22        0.0150888240
   23        0.1672851220
   24        0.2575836560
   25        0.0215536360
   26        0.0099268600
   27        0.0878036140
   28        0.0168028270
   29       -0.0083985900
   30       -0.0582884570
   31        0.3381275970
   32       -0.1831926560
   33       -0.2255483480
   34        0.0969772590
   35        0.0619747840
   36        0.0055904820
   37       -0.1557292640
   38       -0.0040162390
   39       -0.0013004830
   40        0.0270589650
 Sym= A
 Ene=         21.00000000
 Spin= Alpha
 Occup=        0.00000000
    1        0.0161335250
    2       -0.8897724850
    3        1.8066443700
    4        0.2842494980
    5        0.2496585560
    6        0.3169069290
    7        0.4951515300
    8       -0.3185022420
    9       -0.3792366550
   10        0.7698145230
   11       -0.5176977360
   12       -0.1774845130
   13        0.0623417230
   14       -0.5607100710
   15       -0.3361040340
   16        0.0144910300
   17        0.1324365700
   18       -0.3423433690
   19        0.0016398940
   20       -0.0025754360
   21       -0.0596862120
   22        0.0551073520
   23        0.1324770990
   24        0.2631844720
   25        0.0607710210
   26        0.0856833260
   27       -0.0249279940
   28        0.0030395950
   29       -0.0291609210
   30       -0.0460362470
   31       -0.9216721860
   32       -0.5514508740
   33        0.2970900500
   34       -0.0134473130
   35       -0.0489981530
   36        0.0059668230
   37        0.0046961580
   38       -0.0091397590
   39       -0.0010833050
   40       -0.0225621270
 Sym= A
 Ene=         22.00000000
 Spin= Alpha
 Occup=        0.00000000
    1       -0.0119714020
    2        0.0369322520
    3        0.0662051290
    4       -0.1574891890
    5       -0.2728895610
    6        0.0886553780
    7        0.7455824160
    8        0.3330544470
    9       -0.6408486940
   10        0.9252136920
   11       -0.3034790970
   12       -0.6759151630
   13       -0.3257753330
   14        0.4622283190
   15        0.1691160960
   16       -0.0441534750
   17       -0.0209010050
   18        0.6393246290
   19        0.0115465740
   20       -0.0092924880
   21       -0.0860814780
   22       -0.2318994170
   23       -0.0920132870
   24       -0.4215208270
   25       -0.1434225740
   26       -0.1215284810
   27        0.0996197920
   28        0.0032817890
   29        0.1024102500
   30        0.0257982600
   31       -0.6069668450
   32       -0.3118345890
   33        0.1049905580
   34        0.0427120270
   35       -0.1223488260
   36       -0.0294991640
   37        0.0112179530
   38        0.0133598890
   39       -0.0092150930
   40        0.0096692490
 Sym= A
 Ene=         23.00000000
 Spin= Alpha
 Occup=        0.00000000
    1        0.0739030420
    2        0.0702120220
    3       -1.2716167400
    4       -0.0109409120
    5       -0.0007135640
    6       -0.0736319360
    7       -0.0663499820
    8       -0.0142374640
    9       -0.9582422020
   10        0.2104253300
   11        0.2119511860
   12       -0.0775502510
   13       -0.0026326730
   14        0.0189016400
   15       -0.0111011310
   16       -0.0303185170
   17       -0.8684210140
   18        2.0358842800
   19       -0.7031647060
   20       -0.0817509580
   21        0.2144733220
   22        0.8985264450
   23        0.0047630350
   24       -1.1911252900
   25       -0.4756199510
   26       -0.3004908950
   27        0.2189951930
   28        0.0679156660
   29        0.3141156220
   30       -0.0757541740
   31        0.0582861870
   32       -0.1896260290
   33        0.0232134590
   34        0.0009609380
   35        0.0106846640
   36        0.2210830210
   37       -0.0111035990
   38       -0.0018667410
   39       -0.0402666660
   40        0.0319014370
 Sym= A
 Ene=         24.00000000
 Spin= Alpha
 Occup=        0.00000000
    1        0.0264627940
    2        0.0465062370
    3       -0.4829254820
    4        0.0058570510
    5        0.0201358370
    6       -0.0092570980
    7        0.0565703810
    8        0.0324287660
    9       -0.3776324780
   10        0.0753360150
   11        0.0821686160
   12       -0.0209169610
   13       -0.0054979060
   14        0.0025783870
   15       -0.0662774280
   16        0.0181109560
   17       -0.4953910510
   18        0.7255385300
   19        0.1906429360
   20        0.6268954120
   21        0.0006252030
   22       -0.0775417930
   23       -0.8784771240
   24       -0.4257296340
   25       -0.0143706480
   26       -0.1414962730
   27        0.0234154980
   28        0.1492823060
   29        0.0532996730
   30       -0.6657352760
   31        0.0012559570
   32       -0.0733187280
   33        0.0091107870
   34        0.0046909810
   35        0.0075241960
   36        0.3433738570
   37        0.0737837390
   38        0.0543971880
   39       -0.0304343350
   40        0.0467064350
 Sym= A
 Ene=         25.00000000
 Spin= Alpha
 Occup=        0.00000000
    1        0.0672372970
    2        0.0302249830
    3       -1.2500051600
    4        0.0247265660
    5       -0.0023921410
    6       -0.0671022840
    7       -0.1279536740
    8       -0.0658391040
    9       -0.8155877000
   10        0.1164762170
   11        0.1779995410
   12        0.0388165830
   13        0.0030013260
   14       -0.0714680360
   15       -0.0164390630
   16       -0.0736030260
   17       -0.7022732320
   18        2.3265249900
   19        0.0718792120
   20       -0.1064788980
   21        0.5772914030
   22       -0.3445193340
   23        0.4997058770
   24       -1.3346034600
   25       -0.0770193580
   26       -0.2426913180
   27       -0.2618045920
   28       -0.2703615250
   29       -0.7108418680
   30        0.0819602770
   31        0.1023879980
   32       -0.0843733690
   33        0.0093138730