[Molden Format]
 Molden2AIM, Version 5.0.2 (10/09/2020)           Time: Tue Apr  6 00:21:31 2021

[Atoms] AU
  O      1    8        0.0000000000        0.0000000000        0.0000000000
  O      2    8        0.0000000000        0.0000000000        2.7620617201
  H      3    1        1.7632934844        0.0000000000       -0.4771921162
  H      4    1       -1.5270569365        0.8816467365        3.2392538382
[GTO]
    1    0
 S    6  1.0
    0.5484672000D+04    0.1831100116D-02
    0.8252350000D+03    0.1395010088D-01
    0.1880470000D+03    0.6844510432D-01
    0.5296450000D+02    0.2327140147D+00
    0.1689757000D+02    0.4701930297D+00
    0.5799635000D+01    0.3585210226D+00
 S    3  1.0
    0.1553962000D+02   -0.1107766479D+00
    0.3599934000D+01   -0.1480255295D+00
    0.1013762000D+01    0.1130766406D+01
 S    1  1.0
    0.2700058000D+00    0.1000000000D+01
 P    3  1.0
    0.1553962000D+02    0.7087426029D-01
    0.3599934000D+01    0.3397528096D+00
    0.1013762000D+01    0.7271585926D+00
 P    1  1.0
    0.2700058000D+00    0.1000000000D+01
 D    1  1.0
    0.8000000000D+00    0.1000000000D+01

    2    0
 S    6  1.0
    0.5484672000D+04    0.1831100116D-02
    0.8252350000D+03    0.1395010088D-01
    0.1880470000D+03    0.6844510432D-01
    0.5296450000D+02    0.2327140147D+00
    0.1689757000D+02    0.4701930297D+00
    0.5799635000D+01    0.3585210226D+00
 S    3  1.0
    0.1553962000D+02   -0.1107766479D+00
    0.3599934000D+01   -0.1480255295D+00
    0.1013762000D+01    0.1130766406D+01
 S    1  1.0
    0.2700058000D+00    0.1000000000D+01
 P    3  1.0
    0.1553962000D+02    0.7087426029D-01
    0.3599934000D+01    0.3397528096D+00
    0.1013762000D+01    0.7271585926D+00
 P    1  1.0
    0.2700058000D+00    0.1000000000D+01
 D    1  1.0
    0.8000000000D+00    0.1000000000D+01

    3    0
 S    3  1.0
    0.1873114000D+02    0.3349460926D-01
    0.2825394000D+01    0.2347270649D+00
    0.6401217000D+00    0.8137572250D+00
 S    1  1.0
    0.1612778000D+00    0.1000000000D+01
 P    1  1.0
    0.1100000000D+01    0.1000000000D+01

    4    0
 S    3  1.0
    0.1873114000D+02    0.3349460926D-01
    0.2825394000D+01    0.2347270649D+00
    0.6401217000D+00    0.8137572250D+00
 S    1  1.0
    0.1612778000D+00    0.1000000000D+01
 P    1  1.0
    0.1100000000D+01    0.1000000000D+01

[MO]
 Sym= A
 Ene=          1.00000000
 Spin= Alpha
 Occup=        2.00000100
    1        1.0107386600
    2       -0.0196057380
    3       -0.0489156270
    4        0.0028515010
    5        0.0001542430
    6        0.0023965640
    7        0.0012551580
    8       -0.0001036240
    9       -0.0016070460
   10        0.0009269020
   11        0.0006130650
   12       -0.0015399670
   13        0.0000701880
   14       -0.0000155560
   15       -0.0000648700
   16        0.0007260130
   17       -0.0028464190
   18        0.0036550310
   19        0.0001708860
   20       -0.0001335050
   21        0.0074070350
   22        0.0001699480
   23       -0.0002103710
   24        0.0008476540
   25        0.0007648600
   26        0.0006809390
   27       -0.0014457990
   28       -0.0001713820
   29       -0.0003923570
   30        0.0001819450
   31       -0.0100150440
   32        0.0024879030
   33        0.0031107950
   34        0.0000086160
   35       -0.0005181890
   36       -0.0000508960
   37        0.0009213670
   38       -0.0001022820
   39        0.0000485620
   40        0.0002091360
 Sym= A
 Ene=          2.00000000
 Spin= Alpha
 Occup=        1.99999800
    1        0.0007261680
    2       -0.0028464160
    3        0.0036550070
    4       -0.0002146110
    5       -0.0000299630
    6       -0.0074068370
    7       -0.0002526890
    8       -0.0000980050
    9       -0.0008475360
   10        0.0008720560
   11        0.0005737290
   12       -0.0014457840
   13        0.0000443210
   14       -0.0004303700
   15        0.0000389430
   16        1.0107387200
   17       -0.0196059660
   18       -0.0489161090
   19       -0.0023933690
   20        0.0015601080
   21       -0.0023968380
   22       -0.0011394460
   23        0.0005382450
   24        0.0016068170
   25        0.0007963020
   26        0.0007436730
   27       -0.0015399740
   28       -0.0001911480
   29        0.0000187560
   30        0.0000641060
   31       -0.0000510280
   32        0.0009213070
   33        0.0001129440
   34       -0.0000079430
   35       -0.0002091360
   36       -0.0100145890
   37        0.0024881220
   38       -0.0026891130
   39        0.0015624300
   40        0.0005181680
 Sym= A
 Ene=          3.00000000
 Spin= Alpha
 Occup=        2.00000200
    1       -0.1271715680
    2        0.4369442900
    3        0.5128988990
    4       -0.3432733290
    5        0.0541300850
    6       -0.1710367940
    7       -0.2347766800
    8        0.0406638460
    9       -0.1235495470
   10       -0.0113832500
   11        0.0110530420
   12        0.0003302070
   13        0.0006101600
   14       -0.0099946160
   15        0.0009499570
   16        0.0098998330
   17       -0.0265353240
   18       -0.0316867050
   19        0.0187704360
   20       -0.0018569260
   21        0.0577148020
   22        0.0276201380
   23       -0.0029926530
   24        0.0590587370
   25       -0.0035827160
   26       -0.0006678830
   27        0.0042505980
   28        0.0011858570
   29        0.0070870390
   30       -0.0007630540
   31       -0.0550190530
   32       -0.0705242790
   33       -0.0070757670
   34        0.0017135610
   35       -0.0047919430
   36       -0.0137963350
   37        0.0012668400
   38        0.0002680220
   39        0.0002250440
   40        0.0018728150
 Sym= A
 Ene=          4.00000000
 Spin= Alpha
 Occup=        2.00000000
    1       -0.0114966200
    2        0.0412480400
    3        0.0447069500
    4       -0.0277966840
    5       -0.6655757620
    6       -0.0081533620
    7       -0.0160098220
    8       -0.4841845960
    9       -0.0082342340
   10        0.0000503900
   11       -0.0005731680
   12        0.0005227770
   13       -0.0210801250
   14        0.0001897590
   15       -0.0072084320
   16        0.0023287490
   17       -0.0041632400
   18       -0.0170110750
   19        0.0076015210
   20        0.0308713420
   21        0.0022908030
   22        0.0124883660
   23        0.0490830690
   24        0.0031747650
   25       -0.0005425410
   26        0.0001966370
   27        0.0003459040
   28       -0.0016710780
   29       -0.0005459720
   30        0.0146640340
   31       -0.0053989800
   32       -0.0104595890
   33       -0.0003909000
   34       -0.0212366160
   35        0.0000051720
   36        0.0142993590
   37        0.0155216200
   38        0.0009270900
   39        0.0011530380
   40        0.0002728830
 Sym= A
 Ene=          5.00000000
 Spin= Alpha
 Occup=        2.00000100
    1        0.0099103290
    2       -0.0265541980
    3       -0.0317625020
    4       -0.0171536250
    5        0.0079156430
    6       -0.0577242620
    7       -0.0253589620
    8        0.0114380890
    9       -0.0590731750
   10       -0.0037397870
   11       -0.0005126670
   12        0.0042524550
   13        0.0008702040
   14        0.0064831740
   15       -0.0029381180
   16       -0.1272223220
   17        0.4371317740
   18        0.5130992080
   19        0.3229522220
   20       -0.1273932510
   21        0.1710727900
   22        0.2226245970
   23       -0.0840805430
   24        0.1235850930
   25       -0.0061607500
   26        0.0058285100
   27        0.0003322380
   28        0.0109582570
   29       -0.0091130820
   30        0.0042015470
   31       -0.0137364770
   32        0.0013346750
   33       -0.0001208530
   34        0.0003364840
   35       -0.0018741630
   36       -0.0550342930
   37       -0.0705677770
   38        0.0069395670
   39       -0.0021379410
   40        0.0047916020
 Sym= A
 Ene=          6.00000000
 Spin= Alpha
 Occup=        2.00000100
    1        0.0022855740
    2       -0.0040487880
    3       -0.0168718990
    4        0.0089257320
    5        0.0304889660
    6       -0.0020352910
    7        0.0138375440
    8        0.0486912290
    9       -0.0029121590
   10        0.0009120610
   11       -0.0012386230
   12        0.0003265610
   13        0.0012006310
   14       -0.0078339710
   15       -0.0124132500
   16       -0.0109259190
   17        0.0392870150
   18        0.0424076870
   19       -0.3101584890
   20       -0.5897417650
   21        0.0073905980
   22       -0.2292222860
   23       -0.4269503140
   24        0.0076831170
   25        0.0157322120
   26       -0.0162532640
   27        0.0005210490
   28        0.0101793030
   29        0.0038098480
   30        0.0061296010
   31        0.0143583400
   32        0.0155152280
   33       -0.0002255410
   34        0.0014597640
   35       -0.0002646540
   36       -0.0051566720
   37       -0.0101446360
   38       -0.0103116730
   39       -0.0185773440
   40       -0.0000263990
 Sym= A
 Ene=          7.00000000
 Spin= Alpha
 Occup=        2.00000000
    1       -0.0321010360
    2        0.1369999320
    3        0.0800087030
    4        0.0220257810
    5        0.0010907760
    6        0.3951999530
    7        0.0272125150
    8        0.0031384590
    9        0.2483382560
   10       -0.0197241030
   11       -0.0175742080
   12        0.0372983040
   13       -0.0005290730
   14        0.0126680560
   15        0.0018553080
   16       -0.0320994140
   17        0.1369927260
   18        0.0800025480
   19       -0.0185248040
   20        0.0119445210
   21       -0.3952015190
   22       -0.0219957670
   23        0.0163158380
   24       -0.2483381270
   25       -0.0187900460
   26       -0.0185086700
   27        0.0372987170
   28        0.0013403470
   29        0.0100429170
   30       -0.0079411160
   31       -0.0174475420
   32       -0.0423886820
   33       -0.0009473850
   34       -0.0001169450
   35        0.0093208780
   36       -0.0174548860
   37       -0.0423909900
   38        0.0007608370
   39       -0.0005751000
   40       -0.0093206610
 Sym= A
 Ene=          8.00000000
 Spin= Alpha
 Occup=        1.99999900
    1       -0.0602411430
    2        0.2323866610
    3        0.1567910500
    4        0.4413525520
    5        0.0025341240
    6       -0.0897801240
    7        0.2608868180
    8        0.0013148530
    9       -0.0299880420
   10        0.0255819070
   11       -0.0102799960
   12       -0.0153019080
   13        0.0006775710
   14       -0.0005337030
   15       -0.0005847900
   16        0.0084344010
   17       -0.0164935350
   18       -0.0470971360
   19       -0.0108564150
   20       -0.0050266530
   21        0.0391362000
   22       -0.0211170550
   23       -0.0076384290
   24        0.0414396870
   25        0.0010315410
   26       -0.0016942300
   27        0.0006626880
   28       -0.0002908490
   29       -0.0108344190
   30        0.0012542320
   31        0.3092576270
   32        0.1059933110
   33       -0.0334995320
   34        0.0001372500
   35        0.0085084800
   36        0.0177627180
   37        0.0157540240
   38        0.0000194830
   39       -0.0004649430
   40        0.0007320540
 Sym= A
 Ene=          9.00000000
 Spin= Alpha
 Occup=        1.99999900
    1        0.0084325730
    2       -0.0164876790
    3       -0.0470966400
    4        0.0069104270
    5       -0.0097755710
    6       -0.0391252590
    7        0.0144840800
    8       -0.0171693190
    9       -0.0414309530
   10        0.0005688500
   11       -0.0012317960
   12        0.0006629460
   13       -0.0012172810
   14       -0.0100096500
   15        0.0043316360
   16       -0.0602399190
   17        0.2323778180
   18        0.1567777210
   19       -0.3809706920
   20        0.2228664270
   21        0.0897658390
   22       -0.2252889330
   23        0.1315777320
   24        0.0299789090
   25        0.0161080670
   26       -0.0008070580
   27       -0.0153010050
   28       -0.0182701860
   29       -0.0001695150
   30        0.0007727270
   31        0.0177750020
   32        0.0157581310
   33       -0.0002511050
   34       -0.0003930810
   35       -0.0007313880
   36        0.3092593920
   37        0.1059945310
   38        0.0290798730
   39       -0.0166306100
   40       -0.0085088570
 Sym= A
 Ene=         10.00000000
 Spin= Alpha
 Occup=       -0.00000000
    1       -0.0605547060
    2        0.2790530800
    3        0.0920103050
    4       -0.0162319700
    5        0.0024427390
    6        0.6072443370
    7       -0.0029887850
    8        0.0066486930
    9        0.3640629340
   10       -0.0076612160
   11        0.0008755520
   12        0.0573920100
   13       -0.0006953350
   14        0.0146989510
   15        0.0031157670
   16        0.0605911180
   17       -0.2790962770
   18       -0.0924708920
   19       -0.0151066630
   20        0.0058171800
   21        0.6071468290
   22       -0.0056671390
   23       -0.0042883380
   24        0.3641362850
   25        0.0048715140
   26        0.0017950170
   27       -0.0571330020
   28       -0.0044908570
   29       -0.0113128100
   30        0.0100693830
   31        0.0291383520
   32       -0.0021935200
   33       -0.0071124700
   34        0.0000454540
   35        0.0055528360
   36       -0.0289067880
   37        0.0024508380
   38       -0.0058430070
   39        0.0032221290
   40        0.0051910090
 Sym= A
 Ene=         11.00000000
 Spin= Alpha
 Occup=       -0.00000000
    1        0.0817961560
    2       -0.3802832700
    3       -0.3061749480
    4       -0.5677641300
    5       -0.0018813330
    6        0.1727042630
    7       -0.4435388260
    8       -0.0017206750
    9        0.1178316650
   10       -0.0727529970
   11        0.0126345890
   12        0.0180389030
   13       -0.0006066670
   14        0.0186990720
   15        0.0007599880
   16        0.0018748240
   17       -0.0144277330
   18       -0.0197058470
   19        0.0321293620
   20        0.0082023220
   21        0.0012729380
   22        0.0368217320
   23        0.0050727130
   24        0.0007059450
   25        0.0043221870
   26        0.0026278060
   27       -0.0074129140
   28        0.0000731260
   29        0.0003278830
   30       -0.0001103100
   31        1.0378861400
   32        0.3811986140
   33       -0.0681211440
   34        0.0005205220
   35        0.0201248460
   36       -0.0246876690
   37       -0.0026391830
   38       -0.0016864690
   39        0.0011357170
   40        0.0001921270
 Sym= A
 Ene=         12.00000000
 Spin= Alpha
 Occup=        0.00000000
    1        0.0018750600
    2       -0.0144342610
    3       -0.0197489140
    4       -0.0236504440
    5        0.0233298130
    6       -0.0013808720
    7       -0.0294001310
    8        0.0227052740
    9       -0.0007570960
   10        0.0040639480
   11        0.0031063770
   12       -0.0076228910
   13       -0.0009188120
   14        0.0003587280
   15       -0.0001238970
   16        0.0816747990
   17       -0.3797749280
   18       -0.3052709450
   19        0.4901881320
   20       -0.2850482290
   21       -0.1725455070
   22        0.3834885410
   23       -0.2235823380
   24       -0.1179587080
   25       -0.0515251340
   26       -0.0094932840
   27        0.0182217350
   28        0.0433098390
   29        0.0161698010
   30       -0.0101668590
   31       -0.0248542360
   32       -0.0025590940
   33        0.0021492900
   34        0.0001676810
   35       -0.0002410170
   36        1.0387988300
   37        0.3799857140
   38        0.0583052570
   39       -0.0328349940
   40       -0.0198486240
 Sym= A
 Ene=         13.00000000
 Spin= Alpha
 Occup=        0.00000000
    1       -0.0207533000
    2       -0.9520018460
    3        2.0753691900
    4        0.4946607610
    5       -0.4359896300
    6       -0.1940382810
    7       -0.7808645770
    8        0.5092334860
    9        1.2360134100
   10       -0.4934406570
   11       -0.2865632510
   12        0.2330779490
   13        0.0964389090
   14        0.3103067000
   15       -0.1512524770
   16        0.0767075920
   17        0.0793583320
   18       -1.3272119000
   19        0.0111342490
   20       -0.0069672730
   21        0.0748020630
   22        0.0424420260
   23       -0.0432762930
   24        1.0020487400
   25        0.2201500870
   26        0.2177480490
   27       -0.0799877290
   28        0.0009732900
   29        0.0209343000
   30       -0.0067442050
   31        0.3257913420
   32        0.0331029190
   33       -0.0511932540
   34       -0.0230632610
   35       -0.0343521080
   36        0.0582030360
   37       -0.1997241180
   38       -0.0185505090
   39        0.0109738920
   40       -0.0108222780
 Sym= A
 Ene=         14.00000000
 Spin= Alpha
 Occup=       -0.00000000
    1        0.0100982480
    2       -0.4072137000
    3        0.6524490980
    4        0.2617055590
    5        0.6690336900
    6       -0.0161907820
    7       -0.4549643100
    8       -0.7617442430
    9        0.3805758230
   10       -0.1868167360
   11        0.0216886180
   12        0.0319779600
   13       -0.0833248730
   14        0.3766688120
   15        0.4749388120
   16        0.0233166530
   17        0.0362445680
   18       -0.4216041030
   19        0.0072820360
   20        0.0179611640
   21        0.0126908980
   22       -0.0112873690
   23        0.0653052230
   24        0.3289460630
   25        0.0720968860
   26        0.0652589790
   27       -0.0204835490
   28        0.0039559120
   29        0.0353149340
   30        0.0474682510
   31        0.2485680360
   32        0.0453109930
   33       -0.0506739320
   34        0.0330770480
   35       -0.0348171810
   36        0.0009414020
   37       -0.0642790980
   38       -0.0040654250
   39        0.0068916690
   40       -0.0049895240
 Sym= A
 Ene=         15.00000000
 Spin= Alpha
 Occup=        0.00000000
    1       -0.0701266840
    2       -0.5798114900
    3        2.0549482700
    4       -0.0382322310
    5       -0.0125967220
    6       -0.6159798960
    7        0.4655874540
    8        0.0405759640
    9        1.3209999200
   10        0.1648491350
   11       -0.3909046760
   12       -0.2838138280
   13       -0.1108620610
   14       -0.6631049430
   15        0.3086496980
   16        0.0618588300
   17        0.0121989860
   18       -1.1527370300
   19       -0.0178656290
   20        0.0112819600
   21        0.0690201700
   22        0.0867232000
   23       -0.0903291940
   24        0.7427854120
   25        0.1075146650
   26        0.1425877230
   27        0.0508823300
   28        0.0300439870
   29       -0.0511905180
   30        0.0400056280
   31       -0.5576165650
   32       -0.2711330280
   33        0.1650438240
   34        0.0221779450
   35       -0.0078706160
   36        0.0964798310
   37       -0.0761643250
   38       -0.0041182840
   39        0.0020663470
   40       -0.0326393140
 Sym= A
 Ene=         16.00000000
 Spin= Alpha
 Occup=        0.00000000
    1       -0.1038377460
    2       -0.3174915570
    3        1.7619649600
    4       -0.0896795030
    5       -0.0523251270
    6        0.1321059130
    7        0.2597386980
    8        0.0871785910
    9        0.4070424840
   10       -0.4606894270
   11       -1.1517133100
   12        0.7138382080
   13       -0.0878860780
   14       -0.1794708740
   15        0.3027636350
   16        0.0674450470
   17        0.1178414420
   18       -1.0789649100
   19       -0.0090463240
   20        0.0064128470
   21        0.0908668730
   22        0.0340967270
   23       -0.0997723510
   24        0.6667642960
   25        0.2163534760
   26        0.2382011160
   27       -0.1419192350
   28        0.0112239860
   29       -0.0165579640
   30        0.0430741590
   31       -0.1727674780
   32       -0.1908176110
   33       -0.0205922740
   34        0.0185360240
   35        0.0335840100
   36        0.0744238140
   37        0.0001987720
   38       -0.0187237240
   39        0.0119426180
   40       -0.0156869170
 Sym= A
 Ene=         17.00000000
 Spin= Alpha
 Occup=        0.00000000
    1       -0.0092571230
    2       -0.1137740010
    3        0.1107997760
    4        0.2729848920
    5       -0.2272109420
    6        0.5127152570
    7       -0.3464978070
    8        0.3036254180
    9       -1.0373928600
   10       -0.3064412110
   11        0.2994991090
   12       -0.4643179240
   13       -0.1458304620
   14       -0.5068543620
   15        0.4130084010
   16       -0.0322244530
   17        0.0605237160
   18        0.4838277290
   19       -0.0012570700
   20        0.0002864340
   21       -0.1018464800
   22        0.2901986130
   23       -0.2047954110
   24       -0.4562296070
   25       -0.0956571880
   26       -0.0909993870
   27        0.0992102310
   28        0.0263281000
   29       -0.0673586180
   30        0.0547864210
   31        0.0802124750
   32       -0.1793167010
   33        0.0022742880
   34        0.0265855070
   35        0.0753484810
   36        0.1432052280
   37        0.0837606780
   38        0.0113033560
   39       -0.0030079540
   40       -0.0061522000
 Sym= A
 Ene=         18.00000000
 Spin= Alpha
 Occup=        0.00000000
    1       -0.4252727230
    2       -0.1854392360
    3        3.9769395300
    4       -0.2986720780
    5        0.0021023980
    6       -0.0301657100
    7        0.4551851110
    8       -0.0111257840
    9        0.1840214230
   10       -1.4725112300
   11       -1.4974652200
   12       -1.6699862000
   13       -0.2227515760
   14        0.2698709230
   15       -0.1019978590
   16        0.0042484010
   17       -0.0451159390
   18       -0.3147133700
   19        0.0016545090
   20       -0.0093622480
   21       -0.0218279820
   22       -0.1398731240
   23        0.0637961520
   24        0.1618091510
   25       -0.0448944290
   26       -0.0590399130
   27        0.2548219430
   28        0.0047297390
   29        0.0604042230
   30       -0.0239421810
   31        0.0995752440
   32       -0.6896327440
   33       -0.3358016400
   34        0.0255890660
   35        0.0310542590
   36        0.0226082160
   37       -0.1815253130
   38        0.0042916290
   39       -0.0017051610
   40        0.0484594780
 Sym= A
 Ene=         19.00000000
 Spin= Alpha
 Occup=       -0.00000000
    1        0.0371887430
    2       -1.1750011300
    3        2.2396903900
    4       -0.5116655920
    5       -0.0746595780
    6        0.1468932010
    7        1.4397856600
    8        0.0907347620
    9        0.1503413070
   10        0.0399211610
   11        0.1681927120
   12        0.1317524350
   13       -0.0780828110
   14        0.1797931420
   15        0.0511504620
   16        0.0395380340
   17        0.1455506460
   18       -0.7656690580
   19       -0.0254670570
   20       -0.0003295900
   21       -0.0170466580
   22       -0.2670255660
   23       -0.0161684410
   24        0.6090697850
   25        0.1654895440
   26        0.1524165070
   27       -0.0981832150
   28        0.0014090510
   29        0.0548576070
   30        0.0142675800
   31       -0.6372836440
   32       -0.8656205290
   33        0.1011197030
   34        0.0104126590
   35       -0.0643610380
   36       -0.0335911060
   37       -0.0244610140
   38       -0.0111108250
   39        0.0102478350
   40       -0.0278828410
 Sym= A
 Ene=         20.00000000
 Spin= Alpha
 Occup=        0.00000000
    1       -0.0588241750
    2       -0.1827985410
    3        0.9238277930
    4       -0.0255183100
    5       -0.0677548700
    6        0.1191750310
    7        0.4610975040
    8        0.1037713940
    9       -0.3673227580
   10        0.3582970300
   11       -0.4500765500
   12       -0.5296859790
   13        0.8837566910
   14       -0.0113774000
   15        0.2386588430
   16       -0.0121143840
   17        0.0263224610
   18        0.1040809900
   19        0.0012265740
   20        0.0067095410
   21       -0.0511150270
   22       -0.0441377420
   23       -0.0864887240
   24       -0.1232292060
   25       -0.0500808990
   26       -0.0334013120
   27        0.0793091290
   28       -0.0175915370
   29        0.0295991430
   30        0.0362877760
   31       -0.4632464480
   32       -0.3406586230
   33        0.0776645830
   34       -0.1086528680
   35       -0.0461402950
   36        0.0124490650
   37        0.0382985170
   38        0.0057223680
   39       -0.0028509690
   40       -0.0003008890
 Sym= A
 Ene=         21.00000000
 Spin= Alpha
 Occup=       -0.00000000
    1       -0.0806674110
    2       -0.5309000380
    3        1.8044998700
    4        0.0430253360
    5        0.4332734440
    6        0.0732716930
    7       -0.0012980100
    8       -0.5523335500
    9        0.3332510980
   10       -0.7348138090
   11       -0.2585285490
   12        0.0183829970
   13        0.3038948140
   14       -0.4834063660
   15       -0.5818207620
   16        0.0407236070
   17        0.0736870720
   18       -0.7250960290
   19       -0.0159180940
   20        0.0004733580
   21        0.0286503630
   22        0.1312123430
   23        0.2335395160
   24        0.4770281390
   25        0.1243435850
   26        0.1194643290
   27       -0.0253425220
   28       -0.0041251190
   29       -0.0670845310
   30       -0.0860526960
   31        0.0255645120
   32       -0.2769366630
   33       -0.0326192890
   34       -0.0489720620
   35        0.0741965750
   36        0.0312176650
   37       -0.0340500000
   38       -0.0169769830
   39       -0.0011480540
   40       -0.0084943680
 Sym= A
 Ene=         22.00000000
 Spin= Alpha
 Occup=        0.00000000
    1        0.0919109830
    2       -0.4388265080
    3        0.2013948330
    4        0.2980673200
    5        0.1263435380
    6        0.2627140770
    7        0.4007958660
    8       -0.1742056250
    9       -0.6590562650
   10        1.3826615300
   11       -0.2720430260
   12       -0.1478302960
   13       -0.3245365490
   14       -0.2104806260
   15       -0.3155024780
   16       -0.0196918900
   17        0.0672434240
   18        0.2794581830
   19        0.0166573630
   20       -0.0078389330
   21       -0.0812483080
   22       -0.0288324340
   23        0.1037601310
   24       -0.1360692540
   25       -0.0479412220
   26       -0.0111218850
   27       -0.0097633990
   28        0.0074255220
   29        0.0157710540
   30       -0.0440117370
   31       -0.9155179370
   32       -0.2784160820
   33        0.3301005120
   34        0.0353565450
   35       -0.1035784870
   36       -0.0182282650
   37        0.0250619550
   38        0.0046444680
   39       -0.0090904710
   40       -0.0174104170
 Sym= A
 Ene=         23.00000000
 Spin= Alpha
 Occup=        0.00000000
    1        0.0759864290
    2        0.0788292690
    3       -1.3164337900
    4       -0.0114303730
    5       -0.0030634140
    6       -0.0741281210
    7       -0.0538343500
    8       -0.0193039180
    9       -0.9967187090
   10        0.2189150220
   11        0.2172314600
   12       -0.0810258740
   13       -0.0015550890
   14        0.0222059730
   15       -0.0015171550
   16       -0.0231229120
   17       -0.9401511570
   18        2.0842770700
   19       -0.6444798250
   20       -0.1692820330
   21        0.1979005700
   22        0.9076304090
   23        0.1055925660
   24       -1.2268757400
   25       -0.5109545730
   26       -0.2681778060
   27        0.2263286680
   28        0.0454939600
   29        0.3461413100
   30        0.0035269950
   31        0.0551916530
   32       -0.1991044200
   33        0.0239791120
   34        0.0004237830
   35        0.0108390360
   36        0.3018287830
   37        0.0177839700
   38        0.0248725970
   39       -0.0398744840
   40        0.0322629370
 Sym= A
 Ene=         24.00000000
 Spin= Alpha
 Occup=       -0.00000000
    1        0.0273057730
    2        0.0413172270
    3       -0.4908002420
    4        0.0030666980
    5        0.0200418320
    6       -0.0160251790
    7        0.0393616220
    8        0.0502002240
    9       -0.3824353330
   10        0.0793376120
   11        0.0817167300
   12       -0.0252108120
   13       -0.0055154480
   14        0.0069424930
   15       -0.0588933900
   16        0.0087303960
   17       -0.4543695190
   18        0.7616340870
   19        0.0750843310
   20        0.7060868590
   21        0.0261527500
   22        0.0574793480
   23       -0.8855936750
   24       -0.4432317600
   25       -0.0991312180
   26       -0.1072703290
   27        0.0456633410
   28        0.1484133840
   29        0.1049282420
   30       -0.5954271380
   31        0.0050068580
   32       -0.0766578170
   33        0.0092385550
   34        0.0041904280
   35        0.0056719310
   36        0.2613223770
   37        0.0471605570
   38        0.0575702450
   39        0.0038015300
   40        0.0345756220
 Sym= A
 Ene=         25.00000000
 Spin= Alpha
 Occup=        0.00000000
    1        0.0616343930
    2        0.0134800420
    3       -1.1502113800
    4        0.0210577510
    5        0.0008647790
    6       -0.0678909420
    7       -0.1235687270
    8       -0.0361966040
    9       -0.7399075580
   10        0.0923169900
   11        0.1566968200
   12        0.0519205280
   13        0.0026993900
   14       -0.0666344380
   15       -0.0097544510
   16       -0.0690984150
   17       -0.5797337430
   18        2.0375908700
   19        0.0277712100
   20       -0.0332596080
   21        0.6109287410
   22       -0.3725492280
   23        0.2670146450
   24       -1.3159212000
   25        0.1098227360
   26       -0.3320079710
   27       -0.2842076060
   28       -0.2205956290
   29       -0.7310515210
   30        0.0583453590
   31        0.0977321790
   32       -0.0754388640
   33        0.0051103690