[Molden Format]
 Molden2AIM, Version 5.0.2 (10/09/2020)           Time: Tue Apr  6 00:21:31 2021

[Atoms] AU
  O      1    8        0.0000000000        0.0000000000        0.0000000000
  O      2    8        0.0000000000        0.0000000000        2.7620617201
  H      3    1        1.7632934844        0.0000000000       -0.4771921162
  H      4    1        0.3061926938        1.7365050820        3.2392538382
[GTO]
    1    0
 S    6  1.0
    0.5484672000D+04    0.1831100116D-02
    0.8252350000D+03    0.1395010088D-01
    0.1880470000D+03    0.6844510432D-01
    0.5296450000D+02    0.2327140147D+00
    0.1689757000D+02    0.4701930297D+00
    0.5799635000D+01    0.3585210226D+00
 S    3  1.0
    0.1553962000D+02   -0.1107766479D+00
    0.3599934000D+01   -0.1480255295D+00
    0.1013762000D+01    0.1130766406D+01
 S    1  1.0
    0.2700058000D+00    0.1000000000D+01
 P    3  1.0
    0.1553962000D+02    0.7087426029D-01
    0.3599934000D+01    0.3397528096D+00
    0.1013762000D+01    0.7271585926D+00
 P    1  1.0
    0.2700058000D+00    0.1000000000D+01
 D    1  1.0
    0.8000000000D+00    0.1000000000D+01

    2    0
 S    6  1.0
    0.5484672000D+04    0.1831100116D-02
    0.8252350000D+03    0.1395010088D-01
    0.1880470000D+03    0.6844510432D-01
    0.5296450000D+02    0.2327140147D+00
    0.1689757000D+02    0.4701930297D+00
    0.5799635000D+01    0.3585210226D+00
 S    3  1.0
    0.1553962000D+02   -0.1107766479D+00
    0.3599934000D+01   -0.1480255295D+00
    0.1013762000D+01    0.1130766406D+01
 S    1  1.0
    0.2700058000D+00    0.1000000000D+01
 P    3  1.0
    0.1553962000D+02    0.7087426029D-01
    0.3599934000D+01    0.3397528096D+00
    0.1013762000D+01    0.7271585926D+00
 P    1  1.0
    0.2700058000D+00    0.1000000000D+01
 D    1  1.0
    0.8000000000D+00    0.1000000000D+01

    3    0
 S    3  1.0
    0.1873114000D+02    0.3349460926D-01
    0.2825394000D+01    0.2347270649D+00
    0.6401217000D+00    0.8137572250D+00
 S    1  1.0
    0.1612778000D+00    0.1000000000D+01
 P    1  1.0
    0.1100000000D+01    0.1000000000D+01

    4    0
 S    3  1.0
    0.1873114000D+02    0.3349460926D-01
    0.2825394000D+01    0.2347270649D+00
    0.6401217000D+00    0.8137572250D+00
 S    1  1.0
    0.1612778000D+00    0.1000000000D+01
 P    1  1.0
    0.1100000000D+01    0.1000000000D+01

[MO]
 Sym= A
 Ene=          1.00000000
 Spin= Alpha
 Occup=        1.99999900
    1        1.0108535800
    2       -0.0200482330
    3       -0.0493214230
    4        0.0030945810
    5        0.0002596580
    6        0.0024116250
    7        0.0009263860
    8       -0.0001712200
    9       -0.0015494880
   10        0.0010365540
   11        0.0005082930
   12       -0.0015448460
   13       -0.0000160790
   14       -0.0001514060
   15       -0.0001095120
   16        0.0006958730
   17       -0.0027864030
   18        0.0038718550
   19       -0.0000944230
   20       -0.0002154120
   21        0.0074208570
   22       -0.0002491770
   23       -0.0002996920
   24        0.0008439880
   25        0.0005228280
   26        0.0009228340
   27       -0.0014456630
   28        0.0000615620
   29       -0.0000225450
   30        0.0003412600
   31       -0.0098654580
   32        0.0026964940
   33        0.0031541260
   34        0.0000138640
   35       -0.0005305810
   36       -0.0001687730
   37        0.0007070640
   38        0.0000191420
   39        0.0001220220
   40        0.0001747720
 Sym= A
 Ene=          2.00000000
 Spin= Alpha
 Occup=        1.99999900
    1        0.0006957440
    2       -0.0027861630
    3        0.0038720800
    4       -0.0002284580
    5       -0.0000557150
    6       -0.0074207850
    7       -0.0003380060
    8       -0.0001934280
    9       -0.0008438760
   10        0.0009289640
   11        0.0005166460
   12       -0.0014456110
   13       -0.0000208520
   14       -0.0003315980
   15        0.0000810480
   16        1.0108541100
   17       -0.0200503530
   18       -0.0493229880
   19        0.0007932820
   20        0.0030031250
   21       -0.0024111510
   22       -0.0000080930
   23        0.0009421420
   24        0.0015491610
   25        0.0005193040
   26        0.0010254870
   27       -0.0015447910
   28        0.0000889260
   29        0.0001340850
   30        0.0001297480
   31       -0.0001687130
   32        0.0007067540
   33        0.0001240110
   34       -0.0000024100
   35       -0.0001749770
   36       -0.0098657670
   37        0.0026963760
   38        0.0005621190
   39        0.0031036630
   40        0.0005306640
 Sym= A
 Ene=          3.00000000
 Spin= Alpha
 Occup=        1.99999900
    1       -0.1110418580
    2        0.3829556960
    3        0.4501667710
    4       -0.2975056820
    5        0.3304272790
    6       -0.1503224330
    7       -0.1984744100
    8        0.2414581990
    9       -0.1085680280
   10       -0.0121034940
   11        0.0118744890
   12        0.0002290050
   13        0.0105105060
   14       -0.0076117030
   15        0.0040286490
   16        0.0088660840
   17       -0.0228352280
   18       -0.0323569230
   19        0.0177659150
   20       -0.0164334100
   21        0.0502174140
   22        0.0256774750
   23       -0.0283802530
   24        0.0501826570
   25       -0.0010665660
   26       -0.0027706060
   27        0.0038371750
   28        0.0002961180
   29        0.0067915320
   30       -0.0063707040
   31       -0.0484598570
   32       -0.0653379250
   33       -0.0067532840
   34        0.0101735500
   35       -0.0042491760
   36       -0.0098891200
   37        0.0070503110
   38        0.0009329610
   39       -0.0006048600
   40        0.0011628400
 Sym= A
 Ene=          4.00000000
 Spin= Alpha
 Occup=        2.00000200
    1       -0.0647731970
    2        0.2278954290
    3        0.2565545910
    4       -0.1670931360
    5       -0.5780729470
    6       -0.0736359870
    7       -0.1118728710
    8       -0.4215266310
    9       -0.0578068230
   10       -0.0053170880
   11        0.0040961910
   12        0.0012208970
   13       -0.0205249020
   14       -0.0044662920
   15       -0.0076551680
   16        0.0081293730
   17       -0.0180114570
   18       -0.0447148940
   19        0.0073842830
   20        0.0150385990
   21        0.0230904410
   22        0.0109246960
   23        0.0246354250
   24        0.0254325540
   25       -0.0024351920
   26        0.0006111450
   27        0.0018240490
   28        0.0001025010
   29        0.0043282930
   30        0.0153347840
   31       -0.0249528790
   32       -0.0433189420
   33       -0.0037930910
   34       -0.0182492240
   35       -0.0018766770
   36        0.0284905890
   37        0.0308747100
   38        0.0002275840
   39       -0.0003850200
   40        0.0014899460
 Sym= A
 Ene=          5.00000000
 Spin= Alpha
 Occup=        2.00000000
    1        0.0088617810
    2       -0.0228256710
    3       -0.0323349030
    4       -0.0131014800
    5        0.0203413430
    6       -0.0502054830
    7       -0.0234993470
    8        0.0302085520
    9       -0.0501693320
   10       -0.0026316480
   11       -0.0012044140
   12        0.0038360600
   13        0.0006141850
   14        0.0051025810
   15       -0.0077943410
   16       -0.1110057200
   17        0.3828369420
   18        0.4500355820
   19        0.2740388160
   20       -0.3503434930
   21        0.1502842130
   22        0.2035379660
   23       -0.2373762910
   24        0.1085395370
   25        0.0142659670
   26       -0.0144947250
   27        0.0002287590
   28        0.0051521310
   29       -0.0026499050
   30        0.0081942460
   31       -0.0098997240
   32        0.0070366740
   33       -0.0004338720
   34        0.0010232890
   35       -0.0011619700
   36       -0.0484553610
   37       -0.0653193750
   38        0.0088554590
   39       -0.0084157440
   40        0.0042484980
 Sym= A
 Ene=          6.00000000
 Spin= Alpha
 Occup=        2.00000200
    1        0.0081345030
    2       -0.0180246490
    3       -0.0447336390
    4        0.0160892460
    5        0.0046819610
    6       -0.0231204070
    7        0.0261478220
    8        0.0065026280
    9       -0.0254615320
   10        0.0005485770
   11       -0.0023742020
   12        0.0018256250
   13       -0.0005051390
   14       -0.0158510510
   15       -0.0016028470
   16       -0.0648294530
   17        0.2280960230
   18        0.2567847410
   19       -0.5981668140
   20       -0.0643222330
   21        0.0737181650
   22       -0.4344465340
   23       -0.0370799010
   24        0.0578640230
   25       -0.0022600720
   26        0.0010401980
   27        0.0012198740
   28       -0.0211425840
   29        0.0083128490
   30        0.0030724160
   31        0.0284875160
   32        0.0308791150
   33       -0.0003393080
   34        0.0002927140
   35       -0.0014906470
   36       -0.0249597210
   37       -0.0433449420
   38       -0.0186260920
   39       -0.0005728400
   40        0.0018783630
 Sym= A
 Ene=          7.00000000
 Spin= Alpha
 Occup=        1.99999700
    1       -0.0321094370
    2        0.1365680150
    3        0.0828204820
    4        0.0232215820
    5        0.0004909740
    6        0.3948157350
    7        0.0341494030
    8        0.0048580200
    9        0.2472387630
   10       -0.0201813970
   11       -0.0168272000
   12        0.0370085960
   13        0.0005545340
   14        0.0159866240
   15        0.0033441510
   16       -0.0321082940
   17        0.1365674330
   18        0.0828211970
   19        0.0045106290
   20        0.0227771320
   21       -0.3948158200
   22        0.0107108350
   23        0.0327827650
   24       -0.2472382390
   25       -0.0167644650
   26       -0.0202443300
   27        0.0370087950
   28       -0.0001418640
   29       -0.0060690680
   30       -0.0151643250
   31       -0.0211272990
   32       -0.0440918690
   33       -0.0010890410
   34       -0.0004851560
   35        0.0096209250
   36       -0.0211317240
   37       -0.0440940390
   38       -0.0006663470
   39       -0.0009874020
   40       -0.0096207920
 Sym= A
 Ene=          8.00000000
 Spin= Alpha
 Occup=        1.99999800
    1       -0.0580691080
    2        0.2246487090
    3        0.1491919850
    4        0.4438507320
    5        0.0009326750
    6       -0.0940961230
    7        0.2587032850
    8        0.0018470730
    9       -0.0297764450
   10        0.0268143950
   11       -0.0109328000
   12       -0.0158815980
   13        0.0015414770
   14       -0.0016646310
   15       -0.0000852510
   16        0.0067465990
   17       -0.0152362210
   18       -0.0293450400
   19       -0.0200142130
   20       -0.0022503610
   21        0.0423398870
   22       -0.0339643300
   23        0.0001640970
   24        0.0442635840
   25        0.0006131460
   26       -0.0011150620
   27        0.0005019180
   28       -0.0005558470
   29       -0.0084717570
   30        0.0010501710
   31        0.3119389760
   32        0.1148367130
   33       -0.0331881300
   34        0.0006421910
   35        0.0083210970
   36       -0.0000445250
   37       -0.0041312960
   38       -0.0009855250
   39        0.0001413020
   40        0.0018395480
 Sym= A
 Ene=          9.00000000
 Spin= Alpha
 Occup=        1.99999600
    1        0.0067459340
    2       -0.0152342480
    3       -0.0293400870
    4       -0.0057063030
    5       -0.0193193520
    6       -0.0423342870
    7       -0.0057463270
    8       -0.0334758800
    9       -0.0442613200
   10       -0.0012287500
   11        0.0007259670
   12        0.0005027820
   13       -0.0001817720
   14        0.0004383820
   15        0.0085256300
   16       -0.0580673140
   17        0.2246479790
   18        0.1491907240
   19        0.0780332900
   20        0.4369402480
   21        0.0940903320
   22        0.0467734330
   23        0.2544481180
   24        0.0297728610
   25       -0.0093380890
   26        0.0252192250
   27       -0.0158811320
   28        0.0089038360
   29        0.0003716680
   30        0.0016244920
   31       -0.0000542680
   32       -0.0041368510
   33       -0.0000317910
   34       -0.0009947330
   35       -0.0018396140
   36        0.3119389910
   37        0.1148371890
   38       -0.0051286500
   39       -0.0327954000
   40       -0.0083212430
 Sym= A
 Ene=         10.00000000
 Spin= Alpha
 Occup=        0.00000000
    1       -0.0610048220
    2        0.2748140460
    3        0.1079677610
    4       -0.0139058800
    5        0.0040151150
    6        0.6068624100
    7        0.0167090640
    8        0.0123920600
    9        0.3648121090
   10       -0.0081035320
   11       -0.0000745390
   12        0.0547754970
   13        0.0003949130
   14        0.0204653670
   15        0.0056668090
   16        0.0610069650
   17       -0.2748673380
   18       -0.1079309000
   19       -0.0016278950
   20        0.0143134980
   21        0.6068713380
   22       -0.0150078210
   23       -0.0142659600
   24        0.3648232620
   25        0.0001631870
   26        0.0079219670
   27       -0.0547044300
   28        0.0012220130
   29        0.0090954780
   30        0.0191586920
   31        0.0200938030
   32       -0.0094469740
   33       -0.0071967630
   34       -0.0000960530
   35        0.0044464420
   36       -0.0200893080
   37        0.0094399100
   38        0.0012768420
   39        0.0070226610
   40        0.0044059980
 Sym= A
 Ene=         11.00000000
 Spin= Alpha
 Occup=       -0.00000000
    1        0.0810284590
    2       -0.3769721980
    3       -0.3077992410
    4       -0.5718230350
    5       -0.0006210470
    6        0.1788151870
    7       -0.4448250050
    8       -0.0015304070
    9        0.1205292610
   10       -0.0718896740
   11        0.0137535210
   12        0.0192982510
   13       -0.0014968930
   14        0.0195388110
   15        0.0005811160
   16        0.0041555470
   17       -0.0190834990
   18       -0.0345137020
   19        0.0456430450
   20        0.0073634580
   21        0.0007973530
   22        0.0426642820
   23       -0.0006237370
   24       -0.0006581030
   25        0.0061895690
   26        0.0024441970
   27       -0.0071589100
   28        0.0010815300
   29        0.0002173160
   30       -0.0003700690
   31        1.0274766400
   32        0.3913971060
   33       -0.0666377480
   34        0.0016912070
   35        0.0190765430
   36       -0.0144947760
   37        0.0055271670
   38       -0.0000444630
   39        0.0006734570
   40       -0.0008953430
 Sym= A
 Ene=         12.00000000
 Spin= Alpha
 Occup=       -0.00000000
    1        0.0041581680
    2       -0.0190662440
    3       -0.0345799440
    4        0.0152366440
    5        0.0437116140
    6       -0.0007984570
    7        0.0067487930
    8        0.0420860360
    9        0.0006564170
   10        0.0028794820
   11        0.0058044140
   12       -0.0071864270
   13        0.0017384830
   14        0.0003086500
   15       -0.0002872370
   16        0.0810140800
   17       -0.3769483950
   18       -0.3076361730
   19       -0.0997873860
   20       -0.5630152160
   21       -0.1788079770
   22       -0.0789700110
   23       -0.4377670020
   24       -0.1205342970
   25        0.0106507340
   26       -0.0688951130
   27        0.0193095230
   28       -0.0180942370
   29       -0.0039425540
   30       -0.0191719590
   31       -0.0144501280
   32        0.0055414950
   33        0.0006548400
   34       -0.0001623270
   35        0.0009020490
   36        1.0275950500
   37        0.3911579440
   38       -0.0096037680
   39       -0.0659447680
   40       -0.0191057580
 Sym= A
 Ene=         13.00000000
 Spin= Alpha
 Occup=        0.00000000
    1       -0.0420220210
    2       -0.7423243660
    3        1.9278866600
    4        0.1844858850
    5       -0.7145810980
    6       -0.2329019480
    7       -0.2254690200
    8        0.8355969550
    9        1.0954060600
   10       -0.3600342980
   11       -0.3873996600
   12        0.1779881310
   13        0.0393585750
   14        0.2941910460
   15       -0.2512936450
   16        0.0681611590
   17        0.0550782290
   18       -1.1638390900
   19        0.0069279760
   20       -0.0088956980
   21        0.0689025590
   22       -0.0011848340
   23       -0.0789265420
   24        0.8634452420
   25        0.1984390300
   26        0.1894080970
   27       -0.0659177740
   28       -0.0035565470
   29        0.0383982730
   30       -0.0113328410
   31        0.1043243920
   32       -0.0864672060
   33       -0.0350711590
   34       -0.0220810150
   35       -0.0410428140
   36        0.0564899130
   37       -0.1596570950
   38        0.0056223110
   39        0.0210056550
   40       -0.0112812430
 Sym= A
 Ene=         14.00000000
 Spin= Alpha
 Occup=       -0.00000000
    1        0.0557093180
    2       -0.2549807450
    3       -0.2044034830
    4        0.4897411180
    5        0.3477313690
    6        0.1375305390
    7       -0.9375187310
    8       -0.4035596600
    9       -0.0093789060
   10       -0.0522462060
   11        0.2831231400
   12       -0.0728192710
   13        0.0401506150
   14        0.7322598420
   15        0.1370326060
   16       -0.0002875790
   17        0.0375197240
   18       -0.0362033630
   19        0.0218391340
   20        0.0096898710
   21       -0.0297861100
   22        0.0168065220
   23        0.0535558710
   24        0.0300630210
   25        0.0086871350
   26       -0.0053681500
   27        0.0167718680
   28       -0.0045809200
   29        0.0689958850
   30        0.0108478900
   31        0.5029064460
   32        0.2367543290
   33       -0.0868359130
   34        0.0033773250
   35       -0.0621484700
   36       -0.0041947160
   37       -0.0025662940
   38        0.0039083470
   39       -0.0000737350
   40       -0.0100433350
 Sym= A
 Ene=         15.00000000
 Spin= Alpha
 Occup=        0.00000000
    1       -0.0791328440
    2       -0.9873604330
    3        2.9414456200
    4       -0.3130511010
    5        0.0891793360
    6       -0.4499596550
    7        0.9177134780
    8       -0.0503585000
    9        1.3132961000
   10       -0.1816165210
   11       -0.3734304710
   12       -0.1800250070
   13       -0.0621672610
   14        0.0500508880
   15        0.6382893780
   16        0.0804785250
   17        0.0821249180
   18       -1.4854752500
   19       -0.0113692680
   20        0.0262289560
   21        0.0595961940
   22       -0.1493290450
   23       -0.1656654880
   24        0.9748592910
   25        0.2349650980
   26        0.1773263620
   27        0.0049409650
   28       -0.0102556580
   29        0.0427446570
   30        0.0840914840
   31       -0.4626117200
   32       -0.5687535010
   33        0.0535301390
   34        0.0253694580
   35       -0.0590045960
   36        0.1223702830
   37       -0.0855237650
   38        0.0053235440
   39        0.0187015530
   40       -0.0374789590
 Sym= A
 Ene=         16.00000000
 Spin= Alpha
 Occup=        0.00000000
    1       -0.0571842270
    2       -0.1549641440
    3        0.8353720420
    4       -0.3085047970
    5       -0.1318647600
    6        0.5140624850
    7        0.4966338170
    8        0.1905806490
    9       -0.5942153360
   10       -0.5450738120
   11       -0.5202205400
   12        0.4330724820
   13       -0.0206533640
   14        0.3644900880
   15        0.3315550680
   16        0.0189379900
   17        0.1274871200
   18       -0.2822987990
   19       -0.0127969000
   20        0.0026192240
   21       -0.0023707590
   22       -0.1496487660
   23       -0.2010277190
   24        0.0642591750
   25        0.1133933050
   26        0.0904373270
   27       -0.0791080170
   28       -0.0043769750
   29        0.0484267610
   30        0.0472493500
   31        0.0245419500
   32       -0.3229556180
   33       -0.1246661120
   34        0.0091616240
   35        0.0143432240
   36        0.1058789420
   37        0.0953432510
   38        0.0044421950
   39        0.0098776800
   40       -0.0102358550
 Sym= A
 Ene=         17.00000000
 Spin= Alpha
 Occup=        0.00000000
    1        0.0293035960
    2       -0.1928487770
    3       -0.0840413490
    4       -0.0130131220
    5       -0.2925245830
    6        0.3831049280
    7        0.0613529650
    8        0.3628180800
    9       -0.9198723140
   10       -0.3207022370
   11        0.8595748840
   12       -0.6180452070
   13       -0.0939184860
   14       -0.1865332060
   15        0.1728053590
   16       -0.0462300440
   17        0.0333297230
   18        0.6653442520
   19       -0.0142280420
   20       -0.0118750420
   21       -0.1204580410
   22        0.0544366340
   23       -0.1517785510
   24       -0.4752535730
   25       -0.1062584400
   26       -0.1559518580
   27        0.1037845550
   28       -0.0002180540
   29       -0.0332436120
   30        0.0226640080
   31        0.1141811340
   32       -0.2872327550
   33       -0.0332499690
   34        0.0122554150
   35        0.0450715330
   36        0.0627199450
   37        0.0219803230
   38       -0.0074543190
   39       -0.0158619090
   40        0.0021709900
 Sym= A
 Ene=         18.00000000
 Spin= Alpha
 Occup=        0.00000000
    1       -0.0206934440
    2        0.0651315640
    3        0.0243889950
    4        0.0128135600
    5       -0.0704295370
    6        0.0007844340
    7       -0.0888616100
    8        0.1013019550
    9       -0.0179669770
   10       -0.1479156880
   11       -0.0094607290
   12       -0.0780630350
   13        1.0206408400
   14       -0.0897300280
   15        0.1529472590
   16       -0.0015224120
   17       -0.0086064130
   18        0.0258663930
   19       -0.0015421230
   20        0.0041547730
   21       -0.0014031350
   22        0.0307632630
   23       -0.0734258020
   24       -0.0405792430
   25       -0.0060984750
   26       -0.0213927520
   27        0.0234035610
   28       -0.0279968700
   29       -0.0172215770
   30        0.0229567360
   31        0.0721025030
   32        0.0223952750
   33       -0.0260729510
   34       -0.1272381020
   35        0.0212043210
   36        0.0362138840
   37       -0.0084007320
   38        0.0017096080
   39       -0.0039657120
   40        0.0006785340
 Sym= A
 Ene=         19.00000000
 Spin= Alpha
 Occup=        0.00000000
    1       -0.4118475540
    2        0.3437496200
    3        2.7084746200
    4       -0.1179323970
    5       -0.0669815980
    6       -0.0828231130
    7       -0.1356517480
    8        0.0923671860
    9        0.0715876390
   10       -1.4670455000
   11       -1.3901616900
   12       -1.6136426500
   13       -0.0797706690
   14        0.1121884970
   15        0.1227197870
   16       -0.0099503960
   17       -0.0950129460
   18       -0.0195770660
   19       -0.0036697640
   20       -0.0087775770
   21       -0.0128943630
   22        0.0436593040
   23       -0.0352848340
   24       -0.1477974600
   25       -0.1026980230
   26       -0.1322100990
   27        0.3019359700
   28       -0.0006403050
   29       -0.0001287540
   30       -0.0055711780
   31        0.3814899170
   32       -0.2910675520
   33       -0.3748729410
   34        0.0118301460
   35        0.0749176850
   36        0.0662042220
   37       -0.0875764210
   38       -0.0066068830
   39       -0.0185679640
   40        0.0437353730
 Sym= A
 Ene=         20.00000000
 Spin= Alpha
 Occup=       -0.00000000
    1       -0.0023525230
    2       -0.3164827210
    3        0.6636221180
    4        0.5419768600
    5        0.0291917340
    6        0.0291978770
    7       -0.9320847270
    8       -0.0061927520
    9        0.5217573040
   10       -0.4176263550
   11       -0.2754873930
   12        0.5393086810
   13       -0.1258995690
   14       -0.6212828190
   15        0.3568992870
   16        0.0505898600
   17        0.0570106280
   18       -0.7665323140
   19        0.0121178450
   20        0.0145226640
   21        0.0658829110
   22        0.2859625030
   23       -0.0799119580
   24        0.5238026860
   25        0.1625917610
   26        0.1486110500
   27       -0.0934423270
   28        0.0035539520
   29       -0.1010917040
   30        0.0514345890
   31        0.2422899870
   32        0.2421387530
   33        0.0330483570
   34        0.0257543300
   35        0.0792033760
   36        0.0332246030
   37       -0.0331431790
   38       -0.0065273050
   39        0.0190482480
   40       -0.0168674380
 Sym= A
 Ene=         21.00000000
 Spin= Alpha
 Occup=        0.00000000
    1       -0.0741041490
    2        0.1341573790
    3        0.2774711340
    4       -0.2302443030
    5        0.2179788900
    6       -0.2701009040
    7       -0.4767004740
    8       -0.2852167340
    9        0.9492466660
   10       -1.4977616100
   11        0.2589632970
   12        0.4037464120
   13        0.0087708260
   14        0.2387647490
   15       -0.2624067800
   16        0.0394161850
   17       -0.0578536760
   18       -0.5674814210
   19       -0.0111942020
   20       -0.0024024890
   21        0.1070534200
   22        0.0581327510
   23        0.1959490550
   24        0.4578769970
   25        0.1119343100
   26        0.0946084150
   27       -0.0634927680
   28        0.0048928660
   29       -0.0177910600
   30       -0.0377635390
   31        0.9468949550
   32        0.2601937080
   33       -0.3236627010
   34       -0.0048736250
   35        0.1008056070
   36       -0.0519453690
   37       -0.1170838470
   38       -0.0011120470
   39        0.0123916220
   40        0.0088425630
 Sym= A
 Ene=         22.00000000
 Spin= Alpha
 Occup=        0.00000000
    1       -0.1576915760
    2       -1.2440841900
    3        4.0256265400
    4       -0.0806481580
    5        0.3289114010
    6        0.2009637060
    7        0.8489838900
    8       -0.4326141870
    9        0.2490725870
   10       -0.4415139360
   11       -0.8889539890
   12       -0.5053221620
   13        0.1006582900
   14       -0.2711767180
   15       -0.5153464430
   16        0.0486705060
   17        0.1382197870
   18       -0.9927904140
   19       -0.0145931530
   20       -0.0078752100
   21       -0.0207360590
   22       -0.0168340410
   23        0.2888946760
   24        0.7682739550
   25        0.1591717120
   26        0.1759257600
   27       -0.0105766240
   28        0.0009738250
   29        0.0074099310
   30       -0.0704443990
   31       -0.6227295670
   32       -0.9118157420
   33        0.0565363800
   34       -0.0218106280
   35       -0.0155601520
   36       -0.0506601240
   37       -0.1342774770
   38        0.0053620880
   39        0.0213286980
   40        0.0007289840
 Sym= A
 Ene=         23.00000000
 Spin= Alpha
 Occup=       -0.00000000
    1        0.0676766380
    2        0.0551157050
    3       -1.1560565600
    4       -0.0076559610
    5        0.0100204060
    6       -0.0682174100
    7       -0.0760561820
    8        0.0135383590
    9       -0.8586614710
   10        0.1877592860
   11        0.1981740520
   12       -0.0660766350
   13       -0.0017160970
   14        0.0043566970
   15       -0.0404705960
   16       -0.0408200710
   17       -0.7408219950
   18        1.9102877100
   19       -0.6662941550
   20        0.3172740350
   21        0.2293170750
   22        0.7755724900
   23       -0.3878393380
   24       -1.0890708400
   25       -0.3682784760
   26       -0.3710241290
   27        0.1759313910
   28        0.0417333250
   29        0.1935953050
   30       -0.3383227330
   31        0.0551728250
   32       -0.1591169500
   33        0.0219460350
   34        0.0022308330
   35        0.0113049050
   36        0.1137534430
   37       -0.0803401420
   38       -0.0267502170
   39       -0.0304286950
   40        0.0411685830
 Sym= A
 Ene=         24.00000000
 Spin= Alpha
 Occup=       -0.00000000
    1       -0.0015948430
    2        0.0372164800
    3       -0.0145499100
    4        0.0125477380
    5        0.0188884960
    6        0.0314381060
    7        0.0549216330
    8        0.0061523870
    9       -0.0134037350
   10       -0.0100593160
   11        0.0060683740
   12        0.0183185110
   13       -0.0015114090
   14       -0.0236323810
   15       -0.0663357410
   16        0.0565978810
   17       -0.2416167640
   18       -0.2398479840
   19        0.4329146490
   20        0.4146010800
   21       -0.1431663890
   22       -0.5665516600
   23       -0.8424289340
   24        0.0327163150
   25        0.2923112560
   26       -0.0464870760
   27       -0.0758085830
   28       -0.0290965030
   29       -0.2704671100
   30       -0.6964330420
   31       -0.0044209100
   32        0.0007451700
   33        0.0002607990
   34        0.0038741670
   35        0.0101303890
   36        0.4998483490
   37        0.2366972160
   38       -0.0093721340
   39       -0.0857096480
   40        0.0617790130
 Sym= A
 Ene=         25.00000000
 Spin= Alpha
 Occup=       -0.00000000
    1        0.0808852950
    2        0.0826089800
    3       -1.4928735500
    4        0.0245893730
    5       -0.0158836830
    6       -0.0598662850
    7       -0.1895085460
    8       -0.1190897700
    9       -0.9804843940
   10        0.1770405570
   11        0.2377984610
   12        0.0045138560
   13        0.0014774330
   14       -0.0907645440
   15       -0.0280850450
   16       -0.0796172670
   17       -0.9924104880
   18        2.9567167100
   19        0.0308327870
   20       -0.3252607770
   21        0.4516866750
   22        0.1133672140
   23        0.9159713100
   24       -1.3201237300
   25       -0.3888842790
   26       -0.1706430140
   27       -0.1804261420
   28       -0.0205308470
   29       -0.6331557850
   30        0.0598547060
   31        0.1226868730
   32       -0.0866273260
   33        0.0197926690