[Molden Format]
made by pyscf v[2.0.1]
[Atoms] (AU)
C   1   6     0.00000000000000     0.00000000000000     0.00000000000000
C   2   6     2.89040035821050     0.00000000000000     0.00000000000000
H   3   1     3.65380793584534     0.00000000000000     1.93990930394644
H   4   1     3.65380793584534    -1.68001073825540    -0.96995465197322
H   5   1     3.65380793584534     1.68001073825540    -0.96995465197322
H   6   1    -0.76340757763484    -1.82291845791239    -0.66348805817456
H   7   1    -0.76340757763484     0.33686171546942     1.91043772266697
H   8   1    -0.76340757763484     1.48605674244297    -1.24694966449241
[GTO]
1 0
 s    8 1.00
                  6665  0.00069158396281299
                  1000  0.0053257961529341
                   228   0.027060721042034
                 64.71    0.10165684614077
                 21.06     0.2745748236174
                 7.495    0.44829431892377
                 2.797    0.28490261071525
                0.5215   0.015194859206082
 s    8 1.00
                  6665  -0.00029326965268655
                  1000  -0.0023180354739745
                   228  -0.011499786038565
                 64.71  -0.046826727009787
                 21.06   -0.12846616875047
                 7.495   -0.30126627246289
                 2.797   -0.25563070233011
                0.5215      1.093793361012
 s    1 1.00
                0.1596                   1
 p    3 1.00
                 9.439   0.056979251590039
                 2.002    0.31320721150073
                0.5456    0.76037674173753
 p    1 1.00
                0.1517                   1
 d    1 1.00
                  0.55                   1

2 0
 s    8 1.00
                  6665  0.00069158396281299
                  1000  0.0053257961529341
                   228   0.027060721042034
                 64.71    0.10165684614077
                 21.06     0.2745748236174
                 7.495    0.44829431892377
                 2.797    0.28490261071525
                0.5215   0.015194859206082
 s    8 1.00
                  6665  -0.00029326965268655
                  1000  -0.0023180354739745
                   228  -0.011499786038565
                 64.71  -0.046826727009787
                 21.06   -0.12846616875047
                 7.495   -0.30126627246289
                 2.797   -0.25563070233011
                0.5215      1.093793361012
 s    1 1.00
                0.1596                   1
 p    3 1.00
                 9.439   0.056979251590039
                 2.002    0.31320721150073
                0.5456    0.76037674173753
 p    1 1.00
                0.1517                   1
 d    1 1.00
                  0.55                   1

3 0
 s    3 1.00
                 13.01   0.033498726389998
                 1.962    0.23480080117413
                0.4446     0.8136829578829
 s    1 1.00
                 0.122                   1
 p    1 1.00
                 0.727                   1

4 0
 s    3 1.00
                 13.01   0.033498726389998
                 1.962    0.23480080117413
                0.4446     0.8136829578829
 s    1 1.00
                 0.122                   1
 p    1 1.00
                 0.727                   1

5 0
 s    3 1.00
                 13.01   0.033498726389998
                 1.962    0.23480080117413
                0.4446     0.8136829578829
 s    1 1.00
                 0.122                   1
 p    1 1.00
                 0.727                   1

6 0
 s    3 1.00
                 13.01   0.033498726389998
                 1.962    0.23480080117413
                0.4446     0.8136829578829
 s    1 1.00
                 0.122                   1
 p    1 1.00
                 0.727                   1

7 0
 s    3 1.00
                 13.01   0.033498726389998
                 1.962    0.23480080117413
                0.4446     0.8136829578829
 s    1 1.00
                 0.122                   1
 p    1 1.00
                 0.727                   1

8 0
 s    3 1.00
                 13.01   0.033498726389998
                 1.962    0.23480080117413
                0.4446     0.8136829578829
 s    1 1.00
                 0.122                   1
 p    1 1.00
                 0.727                   1

[5d]
[7f]
[9g]

[MO]
 Sym= A
 Ene=               0
 Spin= Alpha
 Occup=    1.00000
   1    -0.00013896867682158
   2    0.00014450900720706
   3    0.0024425550783059
   4    0.00031270112523145
   5    -1.4498238482991e-07
   6    -4.4432181958997e-07
   7    0.0011542928510522
   8    -3.3770048042896e-08
   9    -2.0442386020616e-07
  10    0.00010516194193334
  11    1.3880626151905e-09
  12    -4.0145317398596e-09
  13    -0.00018218752171325
  14    -3.3389284772172e-08
  15        1.002272715447
  16    0.0054846086331522
  17    -0.0088779945404864
  18    0.00019879366793631
  19    -8.3403049325135e-07
  20    -3.3935487955905e-07
  21    0.00078175877006608
  22    -3.9838161589727e-07
  23    -1.4421826658819e-07
  24    8.8996500176631e-05
  25    7.3533042638309e-09
  26    4.1196568468411e-08
  27    -0.00015417932846198
  28    -2.6077119679671e-08
  29    0.00047765824654781
  30    0.0012696771269412
  31    9.0333459314883e-05
  32    -6.8065637312097e-07
  33    0.00036700409490457
  34    0.00047867056303813
  35    0.0012700706240587
  36    9.0297691045968e-05
  37    -0.00031746150422546
  38    -0.000184038672493
  39    0.00047743436838819
  40    0.0012695473840792
  41    9.0339463231211e-05
  42    0.00031815839661188
  43    -0.00018295727887907
  44    -0.00011137244469026
  45    8.1874279502086e-05
  46    4.2291867829599e-05
  47    1.4783346857919e-05
  48    7.4170381989856e-06
  49    -0.00011192648740391
  50    8.1722236826781e-05
  51    4.2270697744548e-05
  52    -9.5288449941207e-07
  53    -1.6477493201207e-05
  54    -0.00011137860443307
  55    8.1952309239047e-05
  56    4.2288223439424e-05
  57    -1.3824157070507e-05
  58    9.0707595030319e-06
 Sym= A
 Ene=               1
 Spin= Alpha
 Occup=    1.00000
   1       1.0022726799485
   2    0.0054851129370372
   3    -0.0088776618283696
   4    -0.0001986577068624
   5    5.135805053644e-07
   6    4.7514950414007e-07
   7    -0.00078170228176756
   8    2.1815205932499e-07
   9    2.2521857116531e-07
  10    8.9027841158492e-05
  11    -1.0059217006902e-08
  12    -1.0724918952388e-08
  13    -0.00015413648095156
  14    1.1975446770415e-08
  15    -0.00013895626932916
  16    0.00014476843708146
  17    0.0024427351764347
  18    -0.00031295644493733
  19    6.8866078745877e-07
  20    1.8128372019826e-07
  21    -0.001154402991505
  22    3.1327637884146e-07
  23    6.501118254968e-08
  24    0.00010517023530022
  25    -1.4981447764005e-08
  26    -3.3210546486729e-08
  27    -0.00018214126512292
  28    2.9654625996715e-09
  29    -0.00011138855689231
  30    8.1862819617279e-05
  31    -4.2297628769286e-05
  32    -1.9037943428837e-06
  33    -1.6432145477836e-05
  34    -0.00011206073912822
  35     8.16399025328e-05
  36    -4.2272177792701e-05
  37    1.5160911828366e-05
  38    6.5243789906342e-06
  39    -0.0001110882806477
  40    8.2006343005447e-05
  41    -4.2306375404747e-05
  42    -1.3272447165494e-05
  43    9.9026193530969e-06
  44    0.00047761451544741
  45    0.0012696024918977
  46    -9.0329275851301e-05
  47    -0.00034508491130544
  48    -0.00012489470937504
  49    0.00047858687848348
  50    0.0012699618901551
  51    -9.0294751104172e-05
  52    6.4375595027659e-05
  53    0.00036124532219835
  54    0.00047817203901127
  55    0.0012697781551259
  56    -9.0307668561684e-05
  57    0.00028069685470654
  58    -0.000236360649705
 Sym= A
 Ene=               2
 Spin= Alpha
 Occup=    1.00000
   1    -0.013495919888993
   2      0.18285899012365
   3      0.11090121724402
   4     -0.12417486865773
   5     -0.32567967887538
   6     -0.11799330891849
   7    -0.060308635593298
   8     -0.15690408714162
   9    -0.057036702672702
  10    -0.0080282117837033
  11    0.0046645338632747
  12     0.011099532772794
  13    -0.013293097285052
  14     0.012911610920915
  15    -0.002390691460692
  16    -0.020565181495492
  17    -0.015460932194079
  18     0.025079879373724
  19    -0.00016990807760587
  20    0.00037630365275894
  21     0.015716278049789
  22     0.012694572765061
  23    0.0066359529941185
  24    -0.0028629488674252
  25      0.00548039917389
  26    -0.00066973701598639
  27    0.0035637501505597
  28       0.0153608025727
  29    0.0083252776942215
  30     0.014729062315755
  31    0.0014134343497652
  32    0.00025167314464464
  33    0.0002416943037515
  34    -0.023827897154168
  35    -0.027161994251993
  36     0.001226024166711
  37    0.00073190523005285
  38    0.00034021137391436
  39     0.015754791044043
  40      0.02720439253689
  41    0.00096294141369667
  42    0.00063380929721807
  43    -0.00026590435317139
  44      0.43096234174678
  45      0.16112280212959
  46     0.012698214003125
  47     0.028208031294605
  48     0.010345067776325
  49    -0.020051729375489
  50    -0.036804666675185
  51    -0.002547990677652
  52    -0.010460239657058
  53    -0.0060454834910524
  54    -0.020212897066257
  55     -0.03709061674644
  56    -0.0025367070571497
  57    -0.011806902441161
  58    -0.0021334294192914
 Sym= A
 Ene=               3
 Spin= Alpha
 Occup=    1.00000
   1    -0.0023906047102103
   2    -0.020566627408176
   3    -0.015462077867446
   4      -0.0250835659857
   5    -0.00041194008881047
   6    3.1463563430797e-05
   7    -0.015718012934947
   8    -0.0018942965380829
   9    -0.014198325569938
  10    -0.0021688258543599
  11     0.016308789102785
  12    -0.0009613772819406
  13    0.0039641680497348
  14    -0.00010353128347279
  15    -0.013495893566443
  16      0.18285787761161
  17      0.11090027928759
  18      0.12417871776878
  19    -0.00050576754017366
  20      0.34639419592768
  21     0.060310443530515
  22    -6.4582663786528e-05
  23      0.16694896229532
  24     0.018949816465229
  25     0.013728259620503
  26    -0.00023894394359089
  27    0.0022823176206864
  28    -3.2562823012888e-05
  29      0.43096242828097
  30      0.16112295649322
  31    -0.012698117358242
  32    -7.329018067397e-05
  33    -0.030045120710643
  34    -0.020055064999607
  35    -0.036805979340968
  36    0.0025482033415162
  37    0.0021032038143616
  38     0.011896917244493
  39    -0.020207484798055
  40    -0.037088067150018
  41     0.002536625649391
  42    -0.0020336348006392
  43     0.011824735323493
  44    0.0083261831415185
  45     0.014730006159144
  46    -0.0014135124009786
  47    -0.00014103723501336
  48    -0.00031913997244138
  49     -0.02382702050931
  50    -0.027161453823417
  51     -0.00122609730462
  52    -6.9388231714674e-05
  53    -0.00080416706566054
  54     0.015754531854936
  55     0.027204180877824
  56    -0.00096303653695988
  57    0.00046663677803671
  58    -0.00050462917405042
 Sym= A
 Ene=               4
 Spin= Alpha
 Occup=    1.00000
   1    -0.0023911381642175
   2    -0.020567953737667
   3    -0.015462993333741
   4    -0.025084817850066
   5    0.00022937292234569
   6    0.00033564775204557
   7    -0.015718573259509
   8    -0.011350822154406
   9    0.0087371079118498
  10    -0.0030249515801599
  11    -0.0080645501084338
  12    0.00039080220900741
  13    0.0034697204854783
  14     0.014175758201726
  15    -0.013495378865543
  16      0.18285642802135
  17      0.11089927205172
  18      0.12417990741797
  19      0.30023935045637
  20     -0.17275970411637
  21      0.06031097763026
  22      0.14461460602213
  23    -0.083418607429766
  24    -0.0040303075133232
  25    -0.0068357020425301
  26    -0.015081195687084
  27    -0.010985417466192
  28     0.011905497225151
  29     -0.02005555137458
  30    -0.036805660122108
  31    0.0025482704475046
  32    0.0092514433099923
  33    -0.0077697913745415
  34    -0.020208189797915
  35    -0.037088568894048
  36    0.0025366746367642
  37     0.011257315832144
  38    -0.0041512252212779
  39      0.43096264151779
  40      0.16112332409326
  41    -0.012698091659214
  42     -0.02598316604854
  43     0.015086007011728
  44      0.01575902148767
  45     0.027206343960331
  46    -0.00096292112184028
  47    -0.00067012450843231
  48    -0.00015184735197437
  49    0.0083208027519357
  50     0.014727861642997
  51    -0.0014137322639893
  52    -0.00020589964788285
  53    0.00028202582886177
  54    -0.023826862499179
  55    -0.027161245137481
  56    -0.0012261271340754
  57    -0.00066184746738596
  58    0.00046200500709718
 Sym= A
 Ene=               5
 Spin= Alpha
 Occup=    1.00000
   1     -0.01349823098962
   2      0.18285762481657
   3       0.1108999809933
   4     -0.12418155727946
   5     0.060656123839767
   6      0.34104161326778
   7    -0.060311803840749
   8     0.029057374171763
   9       0.1644004744314
  10     0.017962491972181
  11    -0.013514088302535
  12    0.0062273635308133
  13    0.0017120760864422
  14    -0.0024160683736941
  15    -0.0023892423391849
  16    -0.020566456430026
  17     -0.01546216727221
  18     0.025086604171654
  19    0.00041488546887372
  20    -4.3460829536391e-05
  21        0.015719468982
  22    -0.00059850565999564
  23    -0.014312912227534
  24    -0.0024590155849804
  25    -0.016043051065493
  26    0.00093872476409844
  27    0.0037963900454819
  28    -0.002934145409607
  29    -0.023828300549082
  30    -0.027161870708088
  31    0.0012262149993964
  32    -7.1196428451326e-05
  33    -0.00080397070332793
  34     0.015754435112552
  35     0.027204415376032
  36    0.00096312976831069
  37    -0.0005470971492057
  38    -0.0004160374471879
  39    0.0083308201253371
  40     0.014731525955182
  41    0.0014134155681509
  42    8.3185596693053e-05
  43    -0.00033863629636095
  44    -0.020211784394595
  45    -0.037089744257006
  46    -0.0025368464828349
  47    0.0040559489037739
  48      0.01129175489983
  49       0.4309625915181
  50      0.16112318011253
  51     0.012698042393358
  52    -0.0051448816340344
  53     -0.02960146334101
  54    -0.020048450324985
  55     -0.03680334555386
  56    -0.0025480424312267
  57    -5.614701230666e-06
  58      0.01208171361972
 Sym= A
 Ene=               6
 Spin= Alpha
 Occup=    1.00000
   1    -0.0023889504865038
   2    -0.020566376688528
   3    -0.015462055726632
   4    -0.025085609454955
   5    0.00017881118858379
   6    -0.00036777843607374
   7    -0.015718965096693
   8     0.013243318166468
   9    0.0054609424446887
  10    -0.0015823938244812
  11    -0.0082442685827018
  12    0.00057072449897721
  13    0.0043025307584547
  14    -0.014072081709896
  15    -0.013498186362743
  16      0.18285630046827
  17      0.11089922508055
  18      0.12417987925682
  19     -0.29973366903966
  20     -0.17363567393141
  21     0.060310991919386
  22     -0.14454991463676
  23     -0.08353087857865
  24    -0.0036719176236926
  25    -0.0068925740707195
  26     0.015320138888436
  27    -0.010778437576742
  28    -0.011872760669078
  29    -0.020208684295712
  30    -0.037088660018727
  31    0.0025366955850708
  32    -0.0092237163076877
  33    -0.0076734753117051
  34      0.43096275953388
  35      0.16112350922224
  36    -0.012698086533549
  37     0.026056453820846
  38     0.014959059632659
  39    -0.020055325322778
  40    -0.036805730135554
  41    0.0025482597385525
  42    -0.011354589692916
  43    -0.0041270845556706
  44    -0.023827742482658
  45    -0.027161860701759
  46    -0.0012261662171035
  47    0.00073107917695859
  48    0.00034211975133775
  49     0.015759392539166
  50     0.027206302386086
  51    -0.00096291963012913
  52     0.000203634659335
  53    0.00065616936802142
  54    0.0083243899726415
  55     0.014729158353537
  56    -0.0014136195662428
  57    0.00034701457240598
  58    3.7481563621242e-05
 Sym= A
 Ene=               7
 Spin= Alpha
 Occup=    1.00000
   1    -0.013497171940919
   2      0.18285555737703
   3      0.11089877492119
   4      -0.1241790352157
   5      0.26502411717322
   6     -0.22305246855019
   7    -0.060310607039225
   8      0.12784688584927
   9     -0.10736578569213
  10    0.0013130466348095
  11    0.0088497420376009
  12    -0.017327031095716
  13    -0.0079002665705909
  14    -0.010495452440327
  15    -0.0023904924053332
  16    -0.020565305889963
  17    -0.015461343269191
  18     0.025085654144236
  19    -0.00024259592187818
  20    -0.00033237917195692
  21     0.015718975961104
  22     -0.01209496281283
  23    0.0076773496303658
  24    -0.0014541751788523
  25     0.010562866718708
  26    -0.00026911901734068
  27    0.0043765336759526
  28    -0.012426588126424
  29     0.015759304789903
  30     0.027206488509986
  31    0.00096293183830317
  32    -8.6675468025577e-05
  33    0.00068156326627057
  34    0.0083269431586507
  35     0.014729640202318
  36    0.0014135125249518
  37    -0.00033505555731189
  38    9.7282264110333e-05
  39    -0.023828608393918
  40     -0.02716234316306
  41    0.0012261831453887
  42    -0.00066059183680637
  43    0.00046380919852014
  44    -0.020050641515947
  45    -0.036803729860801
  46    -0.0025480816589634
  47     0.010465673234967
  48    -0.0060361485934682
  49    -0.020215427133087
  50    -0.037091375622475
  51    -0.0025369119158961
  52    0.0077510715123717
  53    -0.0091581850596838
  54       0.4309629157858
  55      0.16112376805976
  56     0.012698100983199
  57    -0.023063107813153
  58     0.019256245724785
 Sym= A
 Ene=               8
 Spin= Alpha
 Occup=    1.00000
   1    -0.010894525641965
   2      0.19907651377614
   3      0.14917574075648
   4       0.3653022041502
   5    4.0687796153522e-06
   6    2.2387393383121e-06
   7      0.16967917623462
   8    1.9606928827592e-06
   9    1.1428597023315e-06
  10    -0.016071760247313
  11    -1.5852602911774e-07
  12    -1.1463560900312e-07
  13      0.02783750977457
  14    -1.5345005415154e-07
  15    -0.010893627842168
  16       0.1990783807797
  17      0.14917688589949
  18     -0.36530129675147
  19    1.6173623616932e-07
  20    -1.4911004256517e-06
  21     -0.16967876620792
  22    -7.857522064446e-08
  23    -8.3073188173925e-07
  24     -0.01607193895702
  25    -1.6337181374367e-07
  26    3.4099423710932e-09
  27     0.027837279656618
  28    -1.8565405306511e-07
  29    -0.022214861988548
  30    -0.037260801594979
  31    -0.0092370579156402
  32    -8.7792251059593e-07
  33    -0.0014135092427846
  34    -0.022212561914913
  35     -0.03725936908572
  36    -0.0092371177543457
  37    0.0012246592908671
  38    0.00070599354720662
  39    -0.022212820313558
  40     -0.03725994906971
  41    -0.0092371214090318
  42    -0.0012238049681636
  43    0.00070753529392443
  44    -0.022218613372856
  45    -0.037262038707584
  46    0.0092369314128526
  47    0.0013276963135466
  48    0.00048420182774046
  49    -0.022211974897853
  50    -0.037259017719443
  51    0.0092371505406816
  52    -0.00024448476357245
  53    -0.0013922481350527
  54    -0.022213230954479
  55    -0.037259729973489
  56    0.0092371128772916
  57    -0.0010832875448298
  58    0.00090801215903175
 Sym= A
 Ene=               9
 Spin= Alpha
 Occup=    0.00000
   1      -1.0550429125902
   2      -2.0679132086308
   3       6.7983696275225
   4    -0.0050191370996957
   5    -0.034296842707101
   6    -0.017039243562837
   7      0.91807198873159
   8     -0.11462579134768
   9     0.035083077794144
  10    -0.071637321052887
  11     0.065269266553851
  12     0.091661245910931
  13     0.071079283242776
  14      0.11215278169918
  15      0.11511401844963
  16      0.12715413442605
  17       -2.631960645479
  18       0.2650065174518
  19    -0.006956409494745
  20    -0.0087869313195569
  21       1.4837896009448
  22     0.011046543678454
  23    -0.025280019939411
  24     0.051181480228516
  25     0.016257479990547
  26     -0.00601041642836
  27    -0.086879397419815
  28     0.019118269199402
  29      0.14362266511028
  30    -0.054908971253586
  31    -0.061513969266132
  32    0.0016972553859956
  33     0.010387772410172
  34      0.14417713217666
  35    -0.064986264285449
  36    -0.053952434828332
  37    -0.0036789352264757
  38    0.0016211700238302
  39      0.13551178847477
  40    -0.067323362222638
  41    -0.062382640859215
  42    0.0095277123185275
  43    -0.0052815555097632
  44     -0.71292888741167
  45     -0.86288944924411
  46    -0.053633666654416
  47     -0.10142854080346
  48    -0.028982468978442
  49     -0.58969695134951
  50     -0.80637712011982
  51     -0.05868249798218
  52    0.0081094429636995
  53     0.042035452339865
  54      -0.5380948219757
  55      -0.7417194718742
  56    -0.037152853916353
  57     0.032679300455775
  58    -0.017001712362213
 Sym= A
 Ene=              10
 Spin= Alpha
 Occup=    0.00000
   1      0.11125497245265
   2      0.14097686220701
   3      -2.0144990028363
   4     -0.17345632880669
   5    -0.0040490409260591
   6    -0.0010549107191006
   7      -1.0652983181558
   8    -0.019723814115005
   9    0.0025857249894822
  10     0.026518976805364
  11    -0.0007569763954044
  12    -0.00098681953905131
  13    -0.051941831438638
  14    -0.0061145310968385
  15      -1.0129970353354
  16      -1.9897452425159
  17       6.4563355112219
  18     -0.11800133861094
  19    -0.023804685764124
  20     0.012540960368132
  21    -0.084798501461068
  22      0.03188089318189
  23    -0.00067660713979868
  24     0.057160602540862
  25    -0.0013425864159424
  26     0.026181653796795
  27    -0.029254934208339
  28    -0.025892083388727
  29     -0.67954224818839
  30     -0.94376831351202
  31       0.0263333966014
  32    -0.005686825707132
  33     0.093445150509225
  34     -0.66972173226587
  35     -0.93023623281474
  36     0.018562829433518
  37    -0.085809973507965
  38    -0.038979182689477
  39     -0.64390539051055
  40     -0.95351999183448
  41     0.015734699132821
  42     0.066525490359566
  43    -0.033843370504418
  44      0.12331650437769
  45     0.004930778757981
  46     0.054734624342255
  47    0.00056902327555845
  48    -0.0034306031322082
  49      0.12781371848909
  50    0.0097313089814602
  51     0.056176533392924
  52    2.3523361424315e-05
  53    0.00081359528888265
  54       0.1292571594452
  55     0.017624301150906
  56     0.056742236823012
  57    0.0023115514338279
  58    0.00052842978860154
 Sym= A
 Ene=              11
 Spin= Alpha
 Occup=    0.00000
   1    -0.045807248831512
   2    -0.088317672934225
   3      0.32932746939484
   4     -0.05161827111592
   5     -0.47991051822651
   6     0.033494971314293
   7      0.29223987552215
   8       2.8613070225532
   9      0.02554061181795
  10      0.10236567316678
  11    -0.011493854911958
  12    -0.033110395078824
  13     0.073405932554942
  14     -0.70904350119215
  15     0.008537826760118
  16    0.0090923471029785
  17      -0.2747141959151
  18     0.024848493979741
  19    -0.026481455610954
  20    -0.0048478993366077
  21      0.17592277424071
  22     -0.88821835011478
  23    -0.069872122671911
  24    -0.0019515165200853
  25    -0.0058196287739584
  26      0.02814749902816
  27    -0.011076481066445
  28     -0.05488333273924
  29      0.02662669905448
  30     0.048673932752731
  31    -0.013879723961047
  32     0.076616767884589
  33    -0.005334694785821
  34     -0.15006652625494
  35     -0.31326737916103
  36    -0.028696039208291
  37    -0.018288652485235
  38    -0.054653495776776
  39       0.1522089366682
  40      0.18818927719982
  41     0.032269255260171
  42    -0.0072513458295116
  43     0.048599363750717
  44      0.79523658342179
  45       1.4262716977238
  46    -0.0099959541156773
  47      0.11451370501697
  48      0.16662745745725
  49     -0.20667018916591
  50     -0.25519757422713
  51    -0.030053420128418
  52     -0.28742508354802
  53     0.094367916445882
  54     -0.62285887291079
  55      -1.1211898465183
  56      -0.0113100431912
  57    -0.033732774959228
  58     -0.20919544094523
 Sym= A
 Ene=              12
 Spin= Alpha
 Occup=    0.00000
   1    -0.010015191945815
   2     -0.01917674629043
   3      0.07141134322263
   4    -0.012488711592507
   5    -0.035579897389858
   6     -0.46776145200124
   7      0.09552527695705
   8    -0.018764065658157
   9       2.8899728668338
  10     0.053242803237933
  11     -0.72609789227317
  12      0.13784656278295
  13     0.053691870575324
  14     0.026106924444695
  15    0.00072980784171184
  16    -0.0015710195644725
  17    -0.080987332970046
  18     0.012267455192513
  19    0.0029885030648779
  20    -0.026449876879483
  21      0.05341660148871
  22     0.064925421137038
  23      -0.8927022302649
  24    -0.023936296618202
  25    -0.057021931748986
  26    -0.0079895619849812
  27    -0.020468406105124
  28    0.0095806736956618
  29      0.17846578279264
  30        0.281918492766
  31     0.035250085786524
  32    0.00032176675638033
  33    -0.042779454845486
  34    -0.071275711566649
  35    -0.090439635708223
  36    -0.027242373050519
  37    -0.046141919740103
  38     0.049389405660794
  39     -0.10049233358055
  40     -0.21627107058554
  41    -0.0099157644785919
  42     0.059004506557272
  43     0.042394385440217
  44      0.25379613647952
  45      0.51987370506322
  46     -0.00898907373309
  47      0.13417279856157
  48     -0.24366628281965
  49     -0.84523044598131
  50      -1.4770745261413
  51    -0.010151992937593
  52      0.06753813564155
  53      0.15659957992655
  54      0.60051100964815
  55      0.99075848208014
  56     0.010085688058475
  57     -0.25187508784827
  58    -0.096085919376949
 Sym= A
 Ene=              13
 Spin= Alpha
 Occup=    0.00000
   1    -0.050938581236593
   2    -0.081351035869657
   3      0.69261247948721
   4     -0.58498502190041
   5     0.018051038511463
   6     0.026127812453508
   7       3.3683712996941
   8     -0.23901551771577
   9    -0.086466955843219
  10     -0.21230315471257
  11    -0.0039929561194702
  12     0.052452848666245
  13      0.33579754360052
  14     0.080760389955052
  15      0.02432609133324
  16    -0.017423278738898
  17      -2.2546494536072
  18      0.27956914418355
  19    0.00067364119302924
  20    0.0041894450078389
  21       1.5575531470788
  22     0.064389199598597
  23     0.039653095014968
  24     0.061922320092803
  25    -0.0029205563345844
  26    -0.0055392719329768
  27     -0.10242899657224
  28    0.0084597187445556
  29      0.03899876605199
  30     -0.31757936760664
  31    -0.0091554866363852
  32    -0.005839814451956
  33     0.029209483974095
  34     0.063316886246103
  35     -0.27556903042388
  36    -0.0072904860714381
  37    -0.019789522690917
  38    -0.012497406726011
  39     0.039158520404152
  40     -0.30694730977574
  41    -0.014365037831146
  42     0.025031174168384
  43    -0.018594460447187
  44      0.13857385043208
  45      0.52368433118739
  46     -0.15927952609777
  47     0.073866965862129
  48     0.029598124165552
  49       0.2608073568607
  50      0.72325170408651
  51     -0.15291589064299
  52    -0.0030601981727924
  53     -0.10583191330235
  54      0.30370871534818
  55      0.72995344395884
  56     -0.14845640791204
  57    -0.084978058515227
  58     0.096475918124284
 Sym= A
 Ene=              14
 Spin= Alpha
 Occup=    0.00000
   1    0.0043554743089352
   2    0.0057718886686672
   3     -0.11509247597576
   4    -0.007926484022491
   5    -0.002465859232798
   6    -0.024271760188914
   7     -0.07350931294476
   8     -0.02931582499093
   9     -0.88612304243558
  10     -0.02690566137468
  11     0.061551123176236
  12    -0.007662413705931
  13     -0.01783268086778
  14     0.007706336590503
  15    -0.019169151171864
  16    -0.036930791616512
  17      0.14028962011788
  18     0.024324665347184
  19     0.062801039604154
  20     -0.44822628357897
  21     -0.12313133842635
  22    -0.089808956982323
  23       2.8851523766903
  24      0.14576193568724
  25      0.74825966094335
  26     -0.10263699915405
  27     0.081092354412168
  28      0.00126122771552
  29      -0.8992247748905
  30      -1.5064527785746
  31     0.021207290165511
  32      0.02856387032134
  33      0.18512627197498
  34      0.46512997891893
  35      0.72308073872127
  36    -0.0094001565605809
  37      0.23013195968076
  38      -0.1752607880253
  39      0.41461592862743
  40      0.80316754771955
  41     0.013631457505477
  42     -0.18646673393693
  43     -0.16753406743963
  44    -0.065944151499372
  45     -0.16634345907435
  46    0.0033532933851847
  47    -0.046306478233191
  48     0.059984405144978
  49       0.1788372070331
  50      0.28457271728881
  51    -0.032408520118614
  52    -0.024552380071614
  53    -0.040375119504953
  54     -0.10039033530833
  55     -0.15065355206765
  56     0.033702528678156
  57     0.053812492674098
  58     0.026681029081293
 Sym= A
 Ene=              15
 Spin= Alpha
 Occup=    0.00000
   1    -0.0050276718780702
   2    -0.0087057896200166
   3     0.090727664905455
   4    0.00072395943247549
   5    -0.019497116812561
   6    0.0036017568247551
   7     0.058166479865379
   8     -0.86686029854005
   9     0.030593609383899
  10    -0.0074627574090383
  11    -0.0034718779228033
  12     0.028818308964543
  13    -0.0066650098117437
  14     0.068367352456877
  15     0.013067628769587
  16     0.024991634914478
  17     -0.10393333884815
  18    -0.026662041971677
  19     -0.44730217214771
  20    -0.047109627638625
  21      0.10464614877188
  22       2.8402595734754
  23      0.10392243791079
  24    -0.066980607167212
  25     0.021877111796141
  26     -0.12474826406729
  27     -0.01646966356635
  28      0.76892316832905
  29    0.0090622285836463
  30    -0.063619554302629
  31    -0.018864073377549
  32     -0.29883085927161