[Molden Format]
made by pyscf v[2.1.0]
[Atoms] (AU)
F   1   9     0.00000000000000     0.00000000000000     0.24937389229324
H   2   1     0.00000000000000     0.00000000000000    -3.19411384432337
[GTO]
1 0
 s    8 1.00
                 14710  0.00072067370873197
                  2207  0.0055504869689163
                 502.8   0.028254207662589
                 142.6    0.10639582836653
                 46.47    0.28668420124307
                  16.7    0.44843796582416
                 6.356    0.26464118141135
                 1.316   0.015326060993048
 s    8 1.00
                 14710  -0.00032119389049893
                  2207  -0.0025461915683188
                 502.8  -0.012643359507821
                 142.6   -0.05195749170489
                 46.47   -0.14344713812646
                  16.7   -0.33243762329603
                 6.356   -0.21865906750347
                 1.316     1.0955904138622
 s    1 1.00
                0.3897                   1
 p    3 1.00
                 22.67   0.064834021493887
                 4.977    0.34053535983101
                 1.347    0.73464640679382
 p    1 1.00
                0.3471                   1
 d    1 1.00
                  1.64                   1

2 0
 s    3 1.00
                 13.01   0.033498726389998
                 1.962    0.23480080117413
                0.4446     0.8136829578829
 s    1 1.00
                 0.122                   1
 p    1 1.00
                 0.727                   1

[5d]
[7f]
[9g]

[MO]
 Sym= A
 Ene=               0
 Spin= Alpha
 Occup=    1.00000
   1       1.0004499740134
   2    -0.0028735505357663
   3    -0.0056374457540579
   4    1.9836119250314e-18
   5    5.1188481780197e-18
   6    -0.000931361042368
   7    1.8194101024741e-18
   8    3.4217213693685e-18
   9    -4.2227340372791e-05
  10    -0.00025735052156878
  11    -6.2070517713168e-20
  12    -5.8468078014435e-19
  13    5.9214618637612e-19
  14    7.7191524320086e-19
  15    0.00012721570178704
  16    0.00052435823038354
  17    2.0097019352534e-20
  18    5.3390234596069e-20
  19    0.00022214749577555
 Sym= A
 Ene=               1
 Spin= Alpha
 Occup=    1.00000
   1    -7.6593076621097e-19
   2    -3.5249691601511e-17
   3    -3.616930234599e-17
   4      0.67344899673868
   5    -2.1480123380273e-17
   6    -2.0413428673238e-16
   7      0.47911519981624
   8    1.8097511319073e-16
   9    -6.7064420360956e-17
  10    -7.8428738449658e-17
  11    -0.0035564388479728
  12    -5.936552587328e-17
  13    -1.2631542846566e-16
  14     -8.3771946718e-18
  15    1.9813553824753e-16
  16    -1.9678330001766e-16
  17    0.0077261062616026
  18    9.6574012626373e-17
  19    4.7838672110631e-18
 Sym= A
 Ene=               2
 Spin= Alpha
 Occup=    1.00000
   1    -2.2667093321376e-18
   2    3.864630745889e-18
   3    -2.1441595444358e-17
   4    3.1872766077923e-30
   5      0.67344899673868
   6    -6.4777228629251e-16
   7    -1.1166607357218e-16
   8      0.47911519981624
   9    -5.2072312842754e-16
  10    2.653607458575e-17
  11    -3.6607185503849e-17
  12    -0.0035564388479728
  13    -6.4570773716995e-17
  14    2.3183849360723e-17
  15    2.1538008623883e-17
  16    -7.226035236021e-17
  17    -1.0956636670954e-17
  18    0.0077261062616026
  19    5.4146414115086e-17
 Sym= A
 Ene=               3
 Spin= Alpha
 Occup=    1.00000
   1    0.0014464529547606
   2      0.49971461078787
   3      0.57825511732686
   4    8.0283171011179e-17
   5    1.1725111508466e-16
   6     0.086388512959981
   7    4.8164677367343e-17
   8    8.7334722074901e-17
   9     0.063621821255601
  10    -0.0013978290078385
  11    -1.0859435510004e-18
  12    -2.1578374038241e-18
  13    1.4612715411393e-18
  14    2.546825676297e-18
  15    -0.026117834468848
  16     -0.02771468723075
  17    9.0168484234543e-19
  18    1.291081302803e-18
  19    0.0032778285874656
 Sym= A
 Ene=               4
 Spin= Alpha
 Occup=    1.00000
   1    0.0062182212584127
   2    -0.037431692532229
   3    -0.042616005631082
   4    1.4745232885705e-16
   5    4.5160525794109e-16
   6      0.49777429798718
   7    1.491782490239e-16
   8    4.701405777335e-16
   9      0.40018055461582
  10    -0.008843767088875
  11    -4.3809330106485e-18
  12    -6.7378276308561e-19
  13    4.1241224057331e-19
  14    -3.5282546147022e-19
  15      -0.2768151366244
  16     -0.26598255274158
  17    3.081600120978e-18
  18    1.4661358006521e-17
  19    -0.020498417984878
 Sym= A
 Ene=               5
 Spin= Alpha
 Occup=    0.00000
   1     -0.64401668899232
   2       -1.584078327086
   3       1.6021556541627
   4    1.0869607682881e-05
   5    -4.6038301965418e-05
   6     0.018667073295022
   7    -1.2205351057594e-05
   8    5.1684093521033e-05
   9    -0.073370174491001
  10     0.090014745195606
  11    3.8173625867354e-07
  12    -4.3452135210196e-06
  13    3.3591336235848e-07
  14    -2.2273068161585e-06
  15     0.010981383410849
  16     -0.21983172410592
  17    3.0784776274342e-07
  18    -1.3126138281564e-06
  19      -0.0804727838001
 Sym= A
 Ene=               6
 Spin= Alpha
 Occup=    0.00000
   1     0.059761918400304
   2     0.087943236107592
   3     -0.33782583807236
   4    -1.7721148553839e-09
   5    -3.2016461630741e-09
   6    -0.0020801899649943
   7    8.3425968531109e-08
   8    1.5656291074593e-07
   9      0.22687502538412
  10    -0.012297821404447
  11    -5.465072481807e-09
  12    -1.025656192829e-08
  13    1.4124973101908e-13
  14    -9.9675543338106e-13
  15       -1.119516770067
  16       1.2394723936943
  17    -1.9159710626146e-06
  18    -3.5989156168704e-06
  19      0.53366718906896
 Sym= A
 Ene=               7
 Spin= Alpha
 Occup=    0.00000
   1      0.03586294080613
   2     0.074608115848505
   3     -0.12630062097503
   4    -1.979744481007e-05
   5    6.1891416498519e-05
   6     -0.91860456511069
   7    2.2230076327925e-05
   8    -6.9479110824968e-05
   9       1.0673806967782
  10      0.30092328419187
  11    -7.5125671168684e-07
  12    6.3464560204488e-06
  13    -5.9284564991003e-07
  14    3.9414674362025e-06
  15      0.07536635996949
  16      0.20424727307266
  17    -5.6102475087702e-07
  18    1.7655714034574e-06
  19       0.1262215362488
 Sym= A
 Ene=               8
 Spin= Alpha
 Occup=    0.00000
   1    3.4077768512304e-05
   2    8.289154486271e-05
   3    -8.731710447102e-05
   4    -8.9049762614976e-10
   5     -0.92947872082928
   6    -6.3419170443243e-05
   7    9.999242293835e-10
   8       1.0438480947813
   9    7.6198700145675e-05
  10    1.1367665171277e-05
  11    -3.2480025453533e-11
  12    0.0013749245263107
  13    -2.7202869344231e-11
  14    1.8063032917853e-10
  15    4.6371476578514e-06
  16     2.47566406589e-05
  17    -2.5236032478529e-11
  18    -0.026240776095069
  19    1.2617601868279e-05
 Sym= A
 Ene=               9
 Spin= Alpha
 Occup=    0.00000
   1    -8.2561229448712e-06
   2    -2.0013219999431e-05
   3    2.1342768315363e-05
   4      -0.9294787237632
   5    -9.6915614902738e-10
   6    2.0041766915194e-05
   7       1.0438480980749
   8    1.087987780023e-09
   9    -2.3882167866826e-05
  10    -4.5454366953497e-06
  11    0.0013749242208806
  12    -9.5620147729151e-11
  13    8.3012024693203e-12
  14    -5.5125946178043e-11
  15    -1.5081057099154e-06
  16    -6.9737584429187e-06
  17    -0.026240776178757
  18    -2.762649283114e-11
  19    -3.6733507329186e-06
 Sym= A
 Ene=              10
 Spin= Alpha
 Occup=    0.00000
   1     0.044389483881076
   2      0.11452605594151
   3    -0.094254999520347
   4    7.9290846460777e-07
   5    -4.1156758252866e-06
   6      0.30547052140734
   7    -8.9057024526723e-07
   8    4.6196925016032e-06
   9     -0.34367437892218
  10      0.95015319005597
  11    -1.9535650540294e-08
  12    -5.2732995372422e-07
  13    6.7000394769359e-08
  14    -4.4873935737802e-07
  15    -0.037762090830105
  16    -0.062132836618844
  17    2.2745004763805e-08
  18    -1.1542800120794e-07
  19    -0.053164887821136
 Sym= A
 Ene=              11
 Spin= Alpha
 Occup=    0.00000
   1    2.8500375011615e-07
   2    6.9050021865536e-07
   3    -7.3766810940304e-07
   4    0.0038426040791168
   5    3.512144608675e-11
   6    -7.1881942109307e-07
   7    1.3307017537256e-05
   8    -3.9427622610369e-11
   9    8.5599715386536e-07
  10    2.1652092757197e-07
  11       1.0000046217821
  12    3.4578929575159e-12
  13    -2.9876867510631e-13
  14    1.9841822164442e-12
  15    5.3736696916327e-08
  16    2.4575576303146e-07
  17    0.0028651611314262
  18    1.0012861134975e-12
  19    1.295216283119e-07
 Sym= A
 Ene=              12
 Spin= Alpha
 Occup=    0.00000
   1    -3.0494160810035e-06
   2    -7.4101814849069e-06
   3    7.8335759789296e-06
   4    8.5626245613662e-11
   5    0.0038426037830886
   6    6.1592559391144e-06
   7    -9.6148039951057e-11
   8    1.3307349860082e-05
   9    -7.3788006706448e-06
  10    -1.0332429471307e-06
  11    3.1345254919425e-12
  12       1.0000046217523
  13    2.6106305635212e-12
  14    -1.7333068731363e-11
  15    -4.5663820766731e-07
  16    -2.3184595195833e-06
  17    2.4267548960402e-12
  18    0.0028651611229857
  19    -1.1957839419311e-06
 Sym= A
 Ene=              13
 Spin= Alpha
 Occup=    0.00000
   1    -1.555851655978e-06
   2    -3.7708939578471e-06
   3    4.0240020923758e-06
   4    5.1350717707324e-11
   5    -1.8037286082979e-10
   6    3.7993078053306e-06
   7    -5.766063270127e-11
   8    2.0248847344011e-10
   9    -4.5246513818473e-06
  10    -5.5922093101235e-07
  11    1.8941626324016e-12
  12    -1.7844062422981e-11
  13    1.5580755175159e-12
  14      0.99999999998965
  15    -2.8940831017878e-07
  16    -1.3226603597936e-06
  17    1.4555921385631e-12
  18    -5.1410053233899e-12
  19    -7.0040469896452e-07
 Sym= A
 Ene=              14
 Spin= Alpha
 Occup=    0.00000
   1    2.3462022345143e-07
   2    5.6866973844322e-07
   3    -6.0674654892017e-07
   4    -7.7242168294289e-12
   5    2.7138177896526e-11
   6    -5.7132847007677e-07
   7    8.6734722779922e-12
   8    -3.0465675680138e-11
   9    6.804593788994e-07
  10    8.4503746104724e-08
  11    -2.849112834032e-13
  12    2.6845819565026e-12
  13      0.99999999999977
  14    1.5567222084318e-12
  15    4.3501989443484e-08
  16    1.9911135490876e-07
  17    -2.1895704716106e-13
  18    7.7347750393896e-13
  19    1.0539551878925e-07
 Sym= A
 Ene=              15
 Spin= Alpha
 Occup=    0.00000
   1    1.5963934684799e-07
   2    2.5973376964974e-07
   3    -6.5656835246648e-07
   4    0.00091906307583361
   5    -1.0480807294277e-13
   6    -6.5305538491694e-08
   7    -0.043593477602441
   8    4.1925630070455e-12
   9    6.8863260891837e-07
  10    -5.5097251066381e-08
  11    0.0028555303157901
  12    -2.7514391247705e-13
  13    1.6104255511338e-16
  14    -1.0876855018211e-15
  15    -8.8533490391752e-07
  16    1.0733453132564e-06
  17       1.0013562511211
  18    -9.5874034768448e-11
  19    2.9605592765446e-06
 Sym= A
 Ene=              16
 Spin= Alpha
 Occup=    0.00000
   1    6.3569590031555e-07
   2    1.1662179817225e-06
   3    -1.3094343746665e-06
   4    8.0511493189627e-14
   5    0.00091906307551776
   6    -5.7637434070136e-07
   7    -2.0285583058281e-12
   8    -0.043593477593426
   9    3.1784710430259e-06
  10    -3.3591750450586e-07
  11    1.314716021659e-13
  12    0.0028555303151961
  13    1.1744548054888e-15
  14    -7.9549821069108e-15
  15    7.6467555590336e-06
  16    -7.6012124498852e-06
  17    4.5600382163988e-11
  18       1.0013562509174
  19    1.9928496287665e-05
 Sym= A
 Ene=              17
 Spin= Alpha
 Occup=    0.00000
   1     0.021011922644373
   2      0.04245771618154
   3    -0.0048087136061237
   4    -9.5029784060406e-10
   5    -2.2129426207994e-08
   6     -0.02839248644376
   7    9.3002576007518e-08
   8    8.7859765798268e-07
   9      0.11776214789785
  10    -0.014431720293641
  11    -6.1298160268331e-09
  12    -5.7643384107517e-08
  13    3.1285596187953e-11
  14    -2.0778718085266e-10
  15      0.58174016985407
  16     -0.60105876894725
  17    -2.1629639064391e-06
  18    -2.0086527294828e-05
  19      0.89786106455246
 Sym= A
 Ene=              18
 Spin= Alpha
 Occup=    0.00000
   1    -0.00036457379613583
   2    -0.052803757745301
   3     -0.10901849927828
   4    1.2528772744797e-10
   5    -4.648590841977e-10
   6      0.40117591042817
   7    -1.313355975229e-10
   8    6.090139614449e-10
   9      0.34108773234461
  10    -0.0073798448120411
  11    4.2999148060978e-12
  12    -5.0609081641804e-11
  13    3.6678130226615e-12
  14    -2.4351156729957e-11
  15      0.50955866617216
  16      0.46915258234665
  17    -2.1633584010902e-10
  18    -2.0636418697032e-09
  19     0.042705631130834
