[Molden Format]
made by pyscf v[2.0.1]
[Atoms] (AU)
O   1   8     0.00000000000000     0.00000000000000     0.00000000000000
O   2   8     2.75227162082039     0.00000000000000     0.00000000000000
H   3   1     3.06432366844540     0.00000000000000     1.80733789576484
H   4   1    -0.31205204762501     1.16173440591458     1.38450115188900
[GTO]
1 0
 s    6 1.00
             5484.6717   0.001831099805527
             825.23495   0.013950098518422
             188.04696    0.06844509273075
               52.9645    0.23271427528445
              16.89757    0.47019295006289
             5.7996353    0.35852086192309
 s    3 1.00
             15.539616   -0.11077750382508
             3.5999336   -0.14802630511126
             1.0137618     1.1307670390447
 s    1 1.00
             0.2700058                   1
 p    3 1.00
             15.539616   0.070874299543311
             3.5999336    0.33975279781076
             1.0137618    0.72715859531445
 p    1 1.00
             0.2700058                   1
 d    1 1.00
                   0.8                   1

2 0
 s    6 1.00
             5484.6717   0.001831099805527
             825.23495   0.013950098518422
             188.04696    0.06844509273075
               52.9645    0.23271427528445
              16.89757    0.47019295006289
             5.7996353    0.35852086192309
 s    3 1.00
             15.539616   -0.11077750382508
             3.5999336   -0.14802630511126
             1.0137618     1.1307670390447
 s    1 1.00
             0.2700058                   1
 p    3 1.00
             15.539616   0.070874299543311
             3.5999336    0.33975279781076
             1.0137618    0.72715859531445
 p    1 1.00
             0.2700058                   1
 d    1 1.00
                   0.8                   1

3 0
 s    3 1.00
             18.731137    0.03349459952309
             2.8253937    0.23472694665786
             0.6401217    0.81375731841339
 s    1 1.00
             0.1612778                   1
 p    1 1.00
                   1.1                   1

4 0
 s    3 1.00
             18.731137    0.03349459952309
             2.8253937    0.23472694665786
             0.6401217    0.81375731841339
 s    1 1.00
             0.1612778                   1
 p    1 1.00
                   1.1                   1

[5d]
[7f]
[9g]

[MO]
 Sym= A
 Ene=               0
 Spin= Alpha
 Occup=    2.00000
   1    -0.0043015334149761
   2     0.010290295358916
   3     0.023616873190684
   4     0.019688507884223
   5    0.0021960506916031
   6    -0.0062176989335138
   7     0.022296844095291
   8    0.0043837297903236
   9    -0.0076010816931567
  10    0.00096806854152841
  11    0.0041934155772327
  12    0.00012351015005334
  13    -0.0011828437752733
  14    0.00061231884257027
  15       0.9857976762571
  16     -0.15979796556305
  17     -0.21839280050177
  18    -0.069885718395559
  19    2.027204268916e-05
  20      0.14442806200098
  21     -0.04852891216647
  22    0.00013949446073092
  23     0.092321534637134
  24    0.0064630615175024
  25    -0.0040249977200654
  26    7.8867823759019e-05
  27    0.0019559023028388
  28    -0.0001689079273486
  29     0.029465608295005
  30     0.037625384815598
  31    -0.0023346239075464
  32    0.00015061575399878
  33    0.0034262175729138
  34    -0.0057717327738479
  35    -0.011304898847552
  36    0.0011259372958574
  37    0.00041023687046743
  38    0.00012267147785707
 Sym= A
 Ene=               1
 Spin= Alpha
 Occup=    2.00000
   1       1.0076433153952
   2    -0.096409270926628
   3     -0.14489147067999
   4     0.045891785529725
   5     0.027009454161428
   6      0.10123820019694
   7     0.030887483051246
   8     0.013972286602221
   9      0.06678989658311
  10    0.0027501551019575
  11    0.0024936298434968
  12    0.0039488803803119
  13    -3.9713754407484e-05
  14    0.0011317383724985
  15    -0.0028555744544992
  16    0.0066681528421575
  17     0.016914941119186
  18    -0.012769685962848
  19    -0.0019125083779623
  20    -0.0033169533147566
  21    -0.015071985306928
  22    -0.0025762767591138
  23    -0.0037290016514798
  24    0.00050952852856559
  25    -0.0030587754985133
  26    0.00017744285501716
  27    -0.00075016528725573
  28    -0.00074422782722021
  29    -0.0052330728608409
  30    -0.0080080074483281
  31    -0.00084547933097698
  32    -7.9538702670658e-05
  33    0.00026508870587249
  34     0.018915651309582
  35     0.025002143675601
  36    0.0014953885696221
  37    0.00056548500021996
  38    0.0030275119894864
 Sym= A
 Ene=               2
 Spin= Alpha
 Occup=    2.00000
   1    -0.00040606665981373
   2    0.0013779953776549
   3    0.0066630852505199
   4    -0.0034218354222741
   5    -0.031893399453231
   6     0.004324099329162
   7    -0.0029417396279515
   8     -0.05021380021467
   9    0.0061277098378578
  10    -0.00014024553084489
  11    0.00089987452001496
  12    -0.0013436101990877
  13    0.0010155352954266
  14     0.015130455399528
  15     0.003481201958001
  16    0.0048227880370677
  17     0.015860609733991
  18    0.0041306931931299
  19      0.66884402783512
  20    -0.0054905850324163
  21    0.00024710587426446
  22      0.48480128816976
  23    0.00031603542476599
  24    -0.00093043326419993
  25    -0.00090999266072216
  26     0.023983297450384
  27    -0.0013147641788355
  28    -0.0094962217529491
  29    -0.0041224611369895
  30    -0.0021000730301793
  31    0.00025489462538306
  32     0.021313542140735
  33    8.5726629625476e-05
  34    -0.019584925473568
  35    -0.010218692398068
  36    0.0014484184283901
  37    -0.00078733385695943
  38    0.00090515710831385
 Sym= A
 Ene=               3
 Spin= Alpha
 Occup=    2.00000
   1     0.053318178487019
   2    -0.071920156741303
   3    -0.095443117521051
   4     0.030032539104589
   5      0.54299760049709
   6     -0.37830785921679
   7      0.01927648384369
   8      0.38828408585116
   9     -0.28042044826393
  10    -0.019749192118439
  11    -0.0054588663225188
  12    0.0078815992435584
  13    -0.010949368112511
  14    0.0075478447153284
  15     -0.00120204958897
  16    0.0026552657889286
  17    0.0014593751251531
  18    -0.010663119422355
  19    -0.028955286506151
  20     0.015665467648144
  21     -0.01070123105499
  22    -0.044903072761816
  23     0.025991615066785
  24    0.0018581195282083
  25    0.0089121305017284
  26    -0.0005138920303724
  27    -0.00069023620378965
  28    -0.011676725600153
  29      0.01726624601457
  30    0.0057516838590257
  31    0.0010143058837823
  32    -0.0012529038640221
  33    -6.6117341221574e-05
  34     0.015248984230576
  35     0.015816591459802
  36      0.00114442880302
  37     0.016581981517929
  38    -0.012827327225995
 Sym= A
 Ene=               4
 Spin= Alpha
 Occup=    2.00000
   1     -0.11212797565159
   2      0.24784527608191
   3      0.17684571558672
   4    -0.068729309575691
   5      0.27764292442954
   6      0.32667807318027
   7    -0.017548332045258
   8      0.16036343357439
   9      0.19122560155084
  10     0.011874621661126
  11    0.0018206370587756
  12      0.02186456952754
  13    -0.010654211595108
  14    0.00091357575350554
  15    0.0039558095078732
  16    -0.011576886149942
  17    -0.025548821906321
  18     0.029380855374734
  19    -0.010368944351173
  20     -0.01513943621649
  21     0.038842729781841
  22    -0.019970836710894
  23    -0.018967383950106
  24    -0.0021982053123504
  25    -0.0070525571069222
  26    0.00097038322081884
  27    0.0025118857161229
  28    -0.0059549859846802
  29    -0.011850100320529
  30    -0.012557226152623
  31    0.0008585266129473
  32    -0.0002063197790096
  33    0.00066006666409067
  34      0.30928649428554
  35        0.116044815278
  36    0.0059355651778153
  37    -0.022286369177854
  38    -0.025282617846986
 Sym= A
 Ene=               5
 Spin= Alpha
 Occup=    2.00000
   1    0.0039398022411109
   2    -0.011581715184546
   3    -0.025555080691199
   4    -0.029388340483501
   5    -0.001785665921644
   6    -0.018257456637803
   7    -0.038848450641162
   8    0.0031067219972125
   9     -0.02736325867978
  10    -0.00090687893257909
  11    0.0092296263650643
  12    -0.00080617453585481
  13     0.003257083997386
  14    -2.818185964608e-05
  15     -0.11214823320171
  16      0.24787270480163
  17      0.17687940688853
  18     0.068745306805528
  19    -0.0026819468135439
  20      0.42869225497921
  21      0.01755950307259
  22    8.6358658880935e-05
  23      0.24955166244818
  24     0.026974358910247
  25    -0.0019811887428534
  26    0.0010852943118621
  27    -0.0019368304578026
  28    -0.00047077345034255
  29      0.30928183548583
  30      0.11603923450983
  31    -0.005935069062558
  32    0.00082162154335249
  33     -0.03369337179885
  34    -0.011846722497302
  35    -0.012553661689451
  36    -0.00085869277541491
  37    0.00058211803803115
  38    0.0003728698922288
 Sym= A
 Ene=               6
 Spin= Alpha
 Occup=    2.00000
   1    0.0095475564000324
   2    -0.024157329957109
   3    -0.046177208970812
   4     -0.04317058142496
   5    -0.0043381634051529
   6       0.0139294866346
   7    -0.045263303883174
   8    -0.0087226355179063
   9     0.017294597228313
  10    -0.0022421158078425
  11    -0.0092818381792787
  12    3.174709507833e-05
  13    0.0027529989072179
  14    -0.0016836272149136
  15      0.23511077481378
  16      0.41071954603928
  17      0.46844075736795
  18      0.15343120954747
  19    -0.011433141642517
  20     -0.31811790798451
  21      0.11436577467917
  22    -0.0087292926587967
  23     -0.20867012522207
  24    -0.012704255710975
  25    0.0094066658763685
  26    -0.0006009086777612
  27    -0.0061301151733412
  28    0.00057135428640859
  29    -0.066501788301563
  30    -0.080714689735478
  31    0.0053247791348926
  32    -0.00069766834940482
  33    -0.0047476324249991
  34     0.012164982652826
  35     0.025928089026289
  36    -0.0024595295908785
  37    -0.00080177129776234
  38    -0.00020834297188224
 Sym= A
 Ene=               7
 Spin= Alpha
 Occup=    2.00000
   1     0.094381822952213
   2      0.42402396729993
   3      0.48712797129941
   4      -0.1594843302747
   5     -0.13220059342449
   6     -0.32114255009605
   7     -0.11878234985476
   8    -0.080964808993785
   9      -0.2157684690105
  10    -0.0062274987492966
  11    -0.0088197783523374
  12     -0.01358133639389
  13    -0.0020626545259369
  14    -0.0048979495948674
  15     0.010019962866437
  16    -0.025299286345935
  17    -0.049466731878967
  18     0.044565734152671
  19    0.0090009553059322
  20     0.010610904906507
  21     0.047041129733168
  22     0.012631971457745
  23     0.011783571273008
  24    -0.0016783315370198
  25    0.0099914255305697
  26    -0.00066767594146845
  27    0.0030841739371814
  28    0.0033444992961454
  29     0.015476635177048
  30     0.028415218415959
  31    0.0027700147127047
  32    0.00033701821015826
  33    -0.00073757858631444
  34    -0.068661632593813
  35    -0.084014317123163
  36    -0.0055061248684789
  37    -0.00047104151486287
  38    -0.006314894743596
 Sym= A
 Ene=               8
 Spin= Alpha
 Occup=    2.00000
   1    -0.057845087830073
   2      0.11979893607285
   3     0.068821539929041
   4      0.40519701819576
   5    -0.0041650895234048
   6    -0.0089146603304936
   7      0.25403866203071
   8    0.0084035563630122
   9     0.012729008772278
  10    -0.019465001044432
  11     0.013484300526353
  12    -0.0024633172906688
  13     0.034312957197572
  14    0.0092201798030148
  15    -0.057885780187678
  16      0.11980185219878
  17     0.068825592423282
  18     -0.40519635566317
  19    -0.0024902870361433
  20    -0.0095003477268208
  21     -0.25403923742146
  22     0.001778719359061
  23     0.015157956186737
  24    -0.021779704502845
  25    -0.016255405848801
  26    0.00072429056485061
  27     0.032976204868667
  28    -0.0016059864349944
  29    -0.031361935622841
  30    -0.049903369118427
  31    -0.0097292948717324
  32    -0.00042460558139642
  33    -0.0010932579802882
  34    -0.031366960731409
  35    -0.049905418715016
  36    0.0097293421368925
  37    -0.00037596880431143
  38    -0.0011110509582773
 Sym= A
 Ene=               9
 Spin= Alpha
 Occup=    0.00000
   1      0.01646125449777
   2      -1.6525535778186
   3       3.3910277318042
   4      0.20094317380889
   5    -0.040633312535878
   6     0.091735278910191
   7      0.27384219624901
   8      0.77480585392441
   9      0.76035787335336
  10     0.019758291839143
  11     -0.12971040077718
  12      0.45646782309746
  13      0.14952058233415
  14     -0.18080005745155
  15     0.034716550270254
  16      0.15818257915083
  17     -0.93205739412115
  18     0.090166080318953
  19    -0.0092194425863345
  20    -0.0037628846886424
  21      0.69763222697917
  22    -0.042069797049748
  23    -0.095425386141645
  24     0.076218953842389
  25      0.03590276603555
  26    -0.0001817371854397
  27     -0.18925848832628
  28     0.027147031860962
  29     0.082735469395745
  30     0.041786852694821
  31    -0.031845633294728
  32      0.01272115880754
  33    0.0064745302438519
  34     -0.87278363430378
  35      -1.1319870577441
  36     -0.04748021970891
  37      0.19559769965845
  38      0.24521166841954
 Sym= A
 Ene=              10
 Spin= Alpha
 Occup=    0.00000
   1      0.02860021018471
   2       0.1473995559136
   3     -0.80692820962564
   4    -0.065599317351911
   5     0.006278485630368
   6    -0.015922464941189
   7     -0.58520259945536
   8    -0.018015536520086
   9      -0.1523420601247
  10     0.075259471379435
  11     -0.06513325257801
  12    -0.030014117607435
  13     -0.14431195001286
  14     0.011772359054783
  15     0.011675962730911
  16      -1.5854618240641
  17       3.3307253179043
  18      -0.2194115838549
  19      0.12096416673341
  20    -0.046178431094789
  21     -0.11820957415586
  22     -0.14751492572453
  23       1.3100367915526
  24       0.4587068113148
  25       0.1682204084822
  26    -0.00072287675523333
  27      0.25715606460362
  28     0.016230138703736
  29     -0.97594896915649
  30      -1.2363503062327
  31     0.062586193219096
  32     0.011313714026568
  33      0.34516010836505
  34     0.086052555575451
  35     0.072769125129902
  36     0.027519278532982
  37      -0.0131390455801
  38     0.011571560910987
 Sym= A
 Ene=              11
 Spin= Alpha
 Occup=    0.00000
   1    0.0017639521277372
   2    -0.023051802461298
   3     -0.31497510941358
   4    -0.023586230962637
   5     0.032218600628376
   6     0.048546578378206
   7     0.093903964852477
   8    -0.042948629920372
   9    0.0024703040745608
  10     0.063220026492209
  11    -0.091879357489157
  12      0.13691807533039
  13    -0.0038740147151638
  14    -0.070469203975701
  15    0.0037426440579517
  16     0.037036821338898
  17    -0.071855855981107
  18    0.0069482909454397
  19    -0.0084910401884103
  20     0.016867203756296
  21      0.18184163632183
  22    -0.087777235570172
  23     0.013248052108099
  24     0.011494851556686
  25     0.011521339677446
  26    -0.015913887377621
  27    -0.0052883738863871
  28    0.0082115826667336
  29    -0.016883982672502
  30     -0.31140248580407
  31     0.024919920032402
  32    -0.0020883350484426
  33     0.019156405083692
  34      -1.1188541968298
  35       1.5818651519809
  36      0.41115446857962
  37       0.0868348254398
  38    -0.088143512060485
 Sym= A
 Ene=              12
 Spin= Alpha
 Occup=    0.00000
   1    -0.0039019960046186
   2    -0.032142786352019
   3     0.078360483588437
   4    0.0097219978751892
   5    -0.017763806145699
   6    -0.0027272309517352
   7      0.17449257446738
   8    -0.070615972244718
   9      0.05650439084926
  10    0.0087315767381606
  11     0.020556577038903
  12    -0.0094906292060669
  13     0.013201125701714
  14    0.0005619059989138
  15     0.014824288443344
  16    -0.036280799223119
  17     0.081974903579083
  18    -0.042873862673328
  19    -0.0065416811023745
  20     -0.19498035873625
  21     0.075586971849437
  22    -0.033650987883304
  23     -0.14160892081992
  24      -0.2618203391493
  25     -0.13371093281908
  26    -0.027711396487858
  27    -0.041326465419865
  28    -0.0049460132742493
  29       1.3022459366664
  30      -1.4246271555115
  31      0.27440732421065
  32      0.12161168348569
  33     -0.35281182931848
  34     0.017858336209151
  35      0.29135616274606
  36     0.026858681317219
  37    -0.012510332342045
  38    -0.013900349359084
 Sym= A
 Ene=              13
 Spin= Alpha
 Occup=    0.00000
   1     0.088375777417103
   2     -0.41919741137132
   3     -0.34532478858869
   4      0.14025584360673
   5     -0.39658344562632
   6     -0.46734189092688
   7     0.049433974815639
   8     -0.25370037258884
   9     -0.30463189515107
  10    -0.034948852079192
  11     0.012133443678283
  12    -0.078111067244585
  13     0.029324506569443
  14     0.010094059381748
  15    0.0038971731620034
  16    -0.021015754814225
  17    -0.011615077768783
  18    0.0019387177420767
  19    0.0079315920634711
  20      0.02620414321853
  21    -0.020582515696384
  22     0.017340993039634
  23     0.016510009232634
  24    -0.00015889695884293
  25    -0.002616170778146
  26    0.0029809097854862
  27    -0.0027171342344933
  28    -0.0018749703866324
  29    -0.039371983418274
  30    -0.0068539737739533
  31    -0.0053028220607165
  32    0.00024834840433028
  33    -0.0030286457010751
  34       0.8807779140714
  35      0.55650899047527
  36     0.020519019205217
  37    -0.050888373471042
  38     -0.05750045747874
 Sym= A
 Ene=              14
 Spin= Alpha
 Occup=    0.00000
   1    -0.041785198144949
   2      -0.3332171272017
   3       1.3524353362242
   4     -0.67903615203022
   5    -0.059776032793315
   6     -0.35793486105393
   7       1.6193644898215
   8      0.21469137001462
   9      0.64049106809878
  10     -0.12339695619868
  11     -0.13772633878959
  12     0.047535825320179
  13      0.12468470403124
  14     -0.46490713132523
  15     0.033516663497017
  16      0.10894320035513
  17      -1.0929471489819
  18      0.13150395135924
  19     0.014063290176358
  20     0.012432357875863
  21      0.82352148482668
  22     0.041315787165222
  23    -0.077391877459077
  24     0.078342440799055
  25     0.030131943966928
  26    0.0029363331037134
  27     -0.17258574717717
  28    -0.042827335347726
  29     0.078318468790326
  30     -0.16910550790861
  31    -0.0028669542704256
  32    -0.0045523329844539
  33     0.015205291438369
  34     -0.32931076298371
  35     -0.12203967575368
  36    -0.049770386305857
  37     0.037476841855218
  38     0.044018939668503
 Sym= A
 Ene=              15
 Spin= Alpha
 Occup=    0.00000
   1    -0.022734920571258
   2    -0.058175236378381
   3       0.5612717500015
   4     0.081426764933337
   5    -0.0071007880359466
   6    -0.045814160780343
   7      0.54798487155734
   8    -0.081550533816916
   9      -0.3690701737347
  10    -0.079979228238022
  11     -0.13364094343036
  12    -0.027818963846231
  13      0.12544097324247
  14    0.0085203292448816
  15    -0.034988521000048
  16      0.47087236029733
  17     -0.44589006069929
  18      -0.1242712762222
  19    -0.075059516524952
  20     -0.75233240730363
  21      0.80469081038494
  22     0.090784269193305
  23       1.4692847139512
  24       0.2477074200646
  25     -0.34652648687961
  26     0.011298621558273
  27     -0.16737627890828
  28     0.038746848419028
  29     -0.42599861421983
  30     -0.56385490898245
  31      0.05201039420497
  32    -0.013337681574373
  33     0.056013307637606
  34     0.071305266969034
  35      0.17840224476749
  36    -0.017508966078481
  37    -0.039301280230682
  38    -0.016236249440871
 Sym= A
 Ene=              16
 Spin= Alpha
 Occup=    0.00000
   1     -0.02969516590279
   2     -0.13000898377112
   3       1.1350744090161
   4      0.10375554660454
   5    0.0017634169247968
   6    0.0049609151425926
   7      0.83730303954657
   8      0.02550213530348
   9      0.10073980942714
  10    -0.069827818425064
  11     0.071228861349149
  12     0.027581602786911
  13      0.12824637503027
  14     0.040959968426772
  15     0.025696457314778
  16      0.48523768105841
  17      -1.4268074653781
  18     -0.70732915142383
  19     -0.13426802282976
  20      0.16465182682788
  21       1.7136238467583
  22      0.13885804204797
  23     -0.40221765464136
  24    -0.083631044721118
  25      0.27283171363295
  26    -0.0036838900939974
  27     0.070100451626248
  28      0.37495373467137
  29      0.24395460324985
  30     0.049405508884588
  31     -0.19595133050606
  32    -0.024493472886141
  33     -0.01319849074759
  34    -0.095151260671234
  35      0.16141203746723
  36      -0.0230064722375
  37    -0.0056597540968349
  38    -0.011031027985764
 Sym= A
 Ene=              17
 Spin= Alpha
 Occup=    0.00000
   1    -0.00040663098018775
   2     -0.02241789623511
   3    -0.0022958650818452
   4    -0.0068035463522119
   5    -0.0012104562708464
   6     -0.01805626950816
   7     0.059995600039973
   8    -0.031092331183864
   9    -0.032343617974607
  10    -0.0055047447654648
  11    -0.019653081146335
  12    -0.0038642434401821
  13     0.014652621684508
  14    0.0022023801794681
  15    -0.061550351827909
  16      0.22620875644538
  17      0.90576758113691
  18     0.073496941534681
  19    -0.00084328215153236
  20      0.49760239155087
  21      0.10596863863769
  22    -0.0080587266687779
  23      0.62077974375944
  24      0.41652442037773
  25     0.064953728776736
  26    -0.0060335189255143
  27    -0.007434806537957
  28    -0.0012862179160452
  29     -0.50037168420275
  30     -0.83491412123368
  31      0.49003580085561
  32     0.023568170630618
  33       1.3667998836938
  34    0.0010779010608586
  35      0.12117127296708
  36    -0.0027470401706945
  37    -0.007828730985806
  38    -0.00011624790193962
 Sym= A
 Ene=              18
 Spin= Alpha
 Occup=    0.00000
   1     0.024077401789507
   2     0.082401109062121
   3     -0.68864441295957
   4    -0.093441077555406
   5     0.016341371078293
   6    -0.0017203204402875
   7     -0.55467617310815
   8    -0.083861077752023
   9    -0.019166534981257
  10     0.074428080725486
  11    -0.038032883207706
  12    -0.012863368526515
  13     -0.12794613369824
  14     0.001212165850853
  15    0.0017055215965656
  16     -0.47689595323205
  17      0.97596994546787
  18      0.22838218808639
  19     -0.70250907337199
  20     0.014852024024887
  21     -0.86333758719078
  22      0.84585999741064
  23    -0.018979118351144
  24     -0.17728268269069
  25     -0.29440136092734
  26    0.0098492629215983
  27      0.18100523580279
  28      0.48378675856329
  29     0.022409357543669
  30     0.016686719996536
  31     0.093536182314549
  32    -0.089098323807791
  33    -0.059363323163629
  34     0.057346283273369
  35     -0.14849745722122
  36    0.0023098667047535
  37      0.01164077717783
  38    0.0093712406247888
 Sym= A
 Ene=              19
 Spin= Alpha
 Occup=    0.00000
   1    -0.063362658471431
   2       0.2287933023193
   3      0.85301120981525
   4    -0.083400633083466
   5      0.34311813244344
   6       0.4065166219717
   7    -0.087212709107564
   8      0.41326489742911
   9      0.48431587228836
  10      0.17374062982969
  11    -0.076905168927864
  12      0.40381895960731
  13     -0.16754646184161
  14    -0.065457031025761
  15    0.00052461438581843
  16    -0.013025790421368
  17    -0.020121257769037
  18    0.0086711319655136
  19     -0.01350002347614
  20     -0.01031373030867
  21    -0.013057175513702
  22    -0.021749074507939
  23    -0.041930330488709
  24    -0.007795309213143
  25     0.016847459940149
  26     -0.00112979323111
  27     0.010911467817562
  28     0.017315604080241
  29    -0.0035688066249397
  30      0.03996520878675
  31    0.0095214019574162
  32    0.0056365744865985
  33    4.2846276130161e-05
  34     -0.82397952468887
  35      -0.4352231844787
  36     -0.38620056498594
  37      0.89558270958735
  38       1.0979653148375
 Sym= A
 Ene=              20
 Spin= Alpha
 Occup=    0.00000
   1    -0.0014753220914814
   2    0.0085438602455855
   3     0.055849475103204
   4    -0.0018486193019084
   5     -0.06939439142895
   6     0.063395370076148
   7    -0.026369034933233
   8     -0.17263195664773
   9      0.16904960379221
  10      0.19008506867726
  11    -0.014535473957631
  12    -0.048938295933151
  13      0.10980076114903
  14     0.025110815545859
  15    0.00025732926873838
  16    -0.0019748513897104
  17    -0.0078494741038367
  18     -0.00221934393987
  19    0.0070859650890729
  20    -0.0093080326371847
  21    -0.030036167917401
  22     0.041752806234565
  23    -0.045037707058508
  24    -0.013173647565286
  25    0.0080371681695258
  26    0.0032460522131122
  27    -0.0013053122471011
  28    -0.015990273973599
  29     0.016074151761395
  30     0.061437977007083
  31    -0.00083432103323368
  32    -0.00059988106210136
  33    -0.0096307479265046
  34      0.12343666810535
  35     -0.21273125263809
  36    -0.022216722488892
  37      0.87069610795956
  38     -0.67791854054955
 Sym= A
 Ene=              21
 Spin= Alpha
 Occup=    0.00000
   1      0.01490056852624
   2     0.016494595621508
   3      -0.3404071776216
   4    -0.069455864262849
   5    -0.0030205760926221
   6     0.033305502743553
   7     -0.27281474688992
   8    -0.055031305282124
   9     0.068901314843674
  10     0.054361137257341
  11     0.088342924162005
  12    0.0045697299015914
  13    -0.087938311681848
  14    -0.025764635494847
  15    -0.032989211802798
  16     0.033061932183495
  17      0.44540801585987
  18       0.2277023574881
  19     -0.21797563194871
  20       -0.258540889651
  21     -0.48212292544041
  22      0.27273133593076
  23      0.49155337544092
  24     -0.10711324067825
  25      0.93367270869906
  26    -0.073074986500202
  27      0.26790640255047
  28    -0.066159626964377
  29     -0.25298098945417
  30     -0.14795039275564
  31     -0.14129002445662
  32    -0.0055736210481215
  33     0.093047796804489
  34    0.0014794165196792
  35    -0.056832692170949
  36    -0.018444436802112
  37     0.011581494432783
  38    0.0016059889836207
 Sym= A
 Ene=              22
 Spin= Alpha
 Occup=    0.00000
   1    -0.0065780992621123
   2     0.080416302330856
   3      0.12651870069258
   4     -0.08634054162567
   5     0.022856774650789
   6     0.024541042822442
   7     -0.38731662447368
   8     0.038266686448623
   9     0.031901500932253
  10    -0.024376729808764
  11     -0.15855257369123
  12    -0.046264738747314
  13    0.0096986950882559
  14     -0.13598605766901
  15    -0.0072757982228024
  16    0.0069704421972835
  17       0.1773304689866
  18     -0.03598825875617
  19    0.0077606485684157
  20    -0.00066141410742922
  21     -0.13039442132947
  22      0.01439090286719
  23    -0.031059764188715
  24    -0.026293324206473
  25    -0.024572652197589
  26    -0.0014915628264998
  27     0.020902310499786
  28    -0.019905440053123
  29     0.035725797671474
  30     0.090244729803058
  31    -0.015510310855807
  32    0.0053154700135213
  33    -0.012782914374008
  34      0.34504090489327
  35     -0.69348103087502
  36      0.98174262058507
  37      0.23173232849839
  38      0.33025752173822
 Sym= A
 Ene=              23
 Spin= Alpha
 Occup=    0.00000
   1    -0.00029646229452833
   2    0.0016845719131773
   3    0.0086077574750528
   4    -0.0021830371010541
   5     0.011455513725653
   6    0.0021771075595484
   7    -0.028729645414648
   8     0.060413295292236
   9    0.0063645309431113
  10    0.0014353827208971
  11    -0.0045130881141216
  12     0.012322545429301
  13    -0.0048088695706916
  14      0.01747516399277
  15    -0.00021398356135517
  16    -0.0020324087572969
  17    -0.032789126902044
  18    0.0009327359389036
  19    -0.093933139555456
  20     0.010059182925287
  21    -0.021300013554309
  22     -0.24101644247599
  23    -0.0016799108898296
  24     0.020544875589669
  25    0.0091155305513971
  26     -0.22477633735279
  27    0.0050421311932679
  28    -0.028603814752232
  29     -0.14213966490997
  30      0.19623104864033
  31    -0.019240888792697
  32       1.1031231384184
  33    -0.00073507319090432
  34    -0.015901535314598
  35    -0.059698653910415
  36    -0.00096644575732597
  37    0.0055273120611965
  38    0.0078077585887008
 Sym= A
 Ene=              24
 Spin= Alpha
 Occup=    0.00000
   1     0.044093100799618
   2     0.049145901048126
   3      -0.8324914979441
   4     -0.19060659161278
   5    0.0040412724318804
   6    -0.0033942052384251
   7     -0.62575922536957
   8     0.028188925269795
   9    -0.046550131076675
  10      0.12580766041903
  11    -0.041752921473603
  12    -0.0042892513941475
  13      -0.2481738396304
  14    -0.0016355294726017
  15    -0.026243187556099
  16    -0.090278221796412
  17      0.57185025193656
  18      0.17139238401752
  19      0.13797764438786
  20    -0.038514736115924
  21     -0.86474218910981
  22     -0.16347652198831
  23    -0.050782771405325
  24     -0.12446198916161
  25     -0.27206900858514
  26    0.0039637929772765
  27       1.1299239162225
  28    -0.063814397637994
  29      0.03122572480677
  30        0.182847903174
  31     0.063408841765447
  32     0.015784499882577
  33    -0.058735504943131
  34     0.031015789016583
  35     -0.04562346422968
  36     0.021574312765782
  37    0.0085140983998403
  38     0.018593242105013
 Sym= A
 Ene=              25
 Spin= Alpha
 Occup=    0.00000
   1    -0.015234669352753
   2      0.29311952173678
   3     -0.34968443679537
   4      0.32390607501265
   5    -2.2923751828116e-06
   6     -0.69253411412188