[Molden Format]
made by pyscf v[2.0.1]
[Atoms] (AU)
C   1   6     0.00000526099753    -0.00000380893198     1.44520516590352
C   2   6    -0.00000449017824     0.00000329284777    -1.44519418489398
H   3   1     0.00000840304516    -1.93991780941450     2.20859841123560
H   4   1     1.68001998490143     0.96995432722366     2.20859891824912
H   5   1    -0.00000342531757     1.93991753616010    -2.20858676428658
H   6   1    -1.68002254831492    -0.96994908115496    -2.20858776678629
H   7   1    -1.68000788687478     0.96995095670814     2.20860672943206
H   8   1     1.68000470174140    -0.96995541343823    -2.20859902955399
[GTO]
1 0
 s    8 1.00
                  6665  0.00069158396281299
                  1000  0.0053257961529341
                   228   0.027060721042034
                 64.71    0.10165684614077
                 21.06     0.2745748236174
                 7.495    0.44829431892377
                 2.797    0.28490261071525
                0.5215   0.015194859206082
 s    8 1.00
                  6665  -0.00029326965268655
                  1000  -0.0023180354739745
                   228  -0.011499786038565
                 64.71  -0.046826727009787
                 21.06   -0.12846616875047
                 7.495   -0.30126627246289
                 2.797   -0.25563070233011
                0.5215      1.093793361012
 s    1 1.00
                0.1596                   1
 p    3 1.00
                 9.439   0.056979251590039
                 2.002    0.31320721150073
                0.5456    0.76037674173753
 p    1 1.00
                0.1517                   1
 d    1 1.00
                  0.55                   1

2 0
 s    8 1.00
                  6665  0.00069158396281299
                  1000  0.0053257961529341
                   228   0.027060721042034
                 64.71    0.10165684614077
                 21.06     0.2745748236174
                 7.495    0.44829431892377
                 2.797    0.28490261071525
                0.5215   0.015194859206082
 s    8 1.00
                  6665  -0.00029326965268655
                  1000  -0.0023180354739745
                   228  -0.011499786038565
                 64.71  -0.046826727009787
                 21.06   -0.12846616875047
                 7.495   -0.30126627246289
                 2.797   -0.25563070233011
                0.5215      1.093793361012
 s    1 1.00
                0.1596                   1
 p    3 1.00
                 9.439   0.056979251590039
                 2.002    0.31320721150073
                0.5456    0.76037674173753
 p    1 1.00
                0.1517                   1
 d    1 1.00
                  0.55                   1

3 0
 s    3 1.00
                 13.01   0.033498726389998
                 1.962    0.23480080117413
                0.4446     0.8136829578829
 s    1 1.00
                 0.122                   1
 p    1 1.00
                 0.727                   1

4 0
 s    3 1.00
                 13.01   0.033498726389998
                 1.962    0.23480080117413
                0.4446     0.8136829578829
 s    1 1.00
                 0.122                   1
 p    1 1.00
                 0.727                   1

5 0
 s    3 1.00
                 13.01   0.033498726389998
                 1.962    0.23480080117413
                0.4446     0.8136829578829
 s    1 1.00
                 0.122                   1
 p    1 1.00
                 0.727                   1

6 0
 s    3 1.00
                 13.01   0.033498726389998
                 1.962    0.23480080117413
                0.4446     0.8136829578829
 s    1 1.00
                 0.122                   1
 p    1 1.00
                 0.727                   1

7 0
 s    3 1.00
                 13.01   0.033498726389998
                 1.962    0.23480080117413
                0.4446     0.8136829578829
 s    1 1.00
                 0.122                   1
 p    1 1.00
                 0.727                   1

8 0
 s    3 1.00
                 13.01   0.033498726389998
                 1.962    0.23480080117413
                0.4446     0.8136829578829
 s    1 1.00
                 0.122                   1
 p    1 1.00
                 0.727                   1

[5d]
[7f]
[9g]

[MO]
 Sym= A
 Ene=               0
 Spin= Alpha
 Occup=    1.00000
   1    -0.00012380615615382
   2    0.00017146820620155
   3    0.0023204305146604
   4    1.7597841758429e-07
   5    -2.0537969968912e-07
   6    -0.00031299941198631
   7    7.9208784000813e-08
   8    -9.0585947497393e-08
   9    -0.0011902729978849
  10    -0.00019461649908086
  11    3.5213242688565e-09
  12    3.7749532470367e-09
  13    -8.6008020308797e-09
  14    9.1522501764037e-09
  15       1.0022666332503
  16     0.005466899805094
  17    -0.0088529208950432
  18    4.5973025171513e-08
  19    -2.2835777447621e-07
  20    -0.00021458024245715
  21    1.5965852032082e-08
  22    -1.0120234060182e-07
  23    -0.00079281810333658
  24    -0.00017773951658514
  25    5.4113502995952e-09
  26    7.3934489363032e-11
  27    9.0888224962905e-09
  28    -6.355555447304e-10
  29    -9.4656156866939e-05
  30    0.00012028128635116
  31    5.2331425016099e-09
  32    1.9064848426389e-05
  33    -4.8751482071672e-05
  34    -9.4769214922903e-05
  35    0.00012025560487365
  36    -1.6499940001162e-05
  37    -9.5352103979833e-06
  38    -4.8748109098744e-05
  39    0.00047767767559554
  40    0.0012580657484142
  41    1.4862537821227e-09
  42    0.00036970608040697
  43    -8.8752677386508e-05
  44    0.00047793022410177
  45    0.0012581642833903
  46    -0.00032016060554134
  47    -0.00018485090292534
  48    -8.8744212127879e-05
  49    -9.5029155656536e-05
  50    0.00012014746732215
  51    1.649079126261e-05
  52    -9.5237162016765e-06
  53    -4.8740389834206e-05
  54    0.0004779778738305
  55    0.0012581612154274
  56    0.0003201559222329
  57    -0.00018484885692471
  58    -8.8744971899529e-05
 Sym= A
 Ene=               1
 Spin= Alpha
 Occup=    1.00000
   1       1.0022666350749
   2    0.0054668915755858
   3    -0.0088529393173942
   4    -5.1197123933401e-07
   5    2.1297324102866e-07
   6    0.00021476622834035
   7    -2.3771386303307e-07
   8    9.5937725666775e-08
   9    0.00079290644983245
  10    -0.00017775990542269
  11    -2.0972490512893e-08
  12    7.2090452038577e-09
  13    9.9321124102769e-09
  14    -2.6693070360796e-08
  15    -0.00012379899398644
  16    0.00017124732742354
  17    0.0023202870851343
  18    -8.246077852334e-10
  19    2.6694758442033e-08
  20    0.00031291628604971
  21    1.4165995239269e-08
  22    5.6510115646685e-09
  23    0.0011902367133589
  24    -0.00019462383864062
  25    -2.5539628301969e-08
  26    9.8620550229849e-09
  27    9.6447290705328e-10
  28    -5.5586895864985e-09
  29    0.00047773369185656
  30    0.0012580742692774
  31    -1.5440196146196e-08
  32    -0.00036970006711896
  33    8.8755061824105e-05
  34    0.00047762378611182
  35    0.0012580218770548
  36    0.00032016712157441
  37    0.00018486457376901
  38    8.8758907482532e-05
  39    -9.4890328872616e-05
  40    0.00012021293418475
  41    9.9758632259581e-10
  42    -1.9046078554055e-05
  43    4.8740172150401e-05
  44    -9.4934147232564e-05
  45    0.00012018409393799
  46    1.6493365371466e-05
  47    9.5220924624401e-06
  48    4.8738687285298e-05
  49    0.00047839633624779
  50      0.00125836369217
  51    -0.00032014208294963
  52    0.00018483117106493
  53    8.8734313812815e-05
  54    -9.4871150524928e-05
  55    0.00012028186810671
  56    -1.6489671304545e-05
  57    9.5213457224776e-06
  58    4.8741421906249e-05
 Sym= A
 Ene=               2
 Spin= Alpha
 Occup=    1.00000
   1    -0.0024548971857604
   2    -0.020538364027196
   3    -0.014487916690665
   4    -9.3108958066629e-07
   5    0.0016705324991232
   6     0.025112036569286
   7    -3.8627789760503e-07
   8    -0.0064493285631359
   9     0.014632373978598
  10    0.0044201358053604
  11    1.8308839665451e-07
  12    -0.016645497466939
  13    -0.0036582784552372
  14    -6.2138296421703e-08
  15    -0.013342325265343
  16      0.18318037278815
  17      0.10960751725885
  18    -4.2896402487077e-06
  19      0.34585124672044
  20     -0.12440574177714
  21    -2.0218347651002e-06
  22      0.16381469464248
  23    -0.061175776532378
  24    -0.0073240603709329
  25    1.2972601966338e-07
  26    -0.014047689584727
  27    -0.018290608333093
  28    2.4401151619878e-07
  29     0.024196795730278
  30     0.043269585262941
  31    -2.1521662607449e-08
  32    -0.0013024835260208
  33    0.00030567426972333
  34    -0.012314131594698
  35    -0.013716299856978
  36    -0.00034417423592105
  37    -0.00078222800666138
  38    0.0019332501739009
  39      0.43106036654338
  40      0.16160933543796
  41    -1.5134601547829e-07
  42    -0.029861208553385
  43     0.012878529206279
  44    -0.020079421686737
  45    -0.037487597671931
  46    0.0021971752444742
  47     0.011888074156514
  48    -0.0025517714020037
  49    -0.012313103844998
  50    -0.013716371488655
  51    0.00034425789780697
  52    -0.00078229535771217
  53    0.0019332240384253
  54    -0.020086086100985
  55    -0.037490394721816
  56    -0.0021969223909067
  57      0.01188779387052
  58    -0.002551983013502
 Sym= A
 Ene=               3
 Spin= Alpha
 Occup=    1.00000
   1    -0.013343962311242
   2      0.18318027758456
   3      0.10960736214412
   4     -0.29951766128346
   5      0.17292008039796
   6      0.12440919362258
   7     -0.14186857386471
   8     0.081904738942945
   9     0.061177601910556
  10    -0.0073240454190701
  11     -0.01216587162717
  12    0.0070237895695468
  13    0.0091450536075908
  14    -0.015840188372989
  15    -0.0024546106428707
  16     -0.02053830166809
  17     -0.01448804015439
  18    -0.0014470471153634
  19    0.00083377559990798
  20    -0.025113523479135
  21    0.0055852431700398
  22    -0.0032252558010826
  23    -0.014633189736218
  24     0.004420224777981
  25    -0.014415518513681
  26    0.0083225567272785
  27    0.0018291179397009
  28    -0.0031680969377504
  29    -0.020077952686765
  30    -0.037487041436615
  31    -0.0091967913391916
  32    0.0078469299128183
  33    0.0025518193538582
  34    -0.020085817434755
  35    -0.037490352299145
  36    -0.011393617923693
  37    0.0040412266698161
  38     0.002552085321735
  39    -0.012314040398329
  40    -0.013716095883155
  41    0.0005053357868339
  42    -0.00068919286773654
  43    -0.0019332933148209
  44    -0.012312648591867
  45    -0.013716317930849
  46    0.00084966784962082
  47    -9.2997503235527e-05
  48    -0.0019332459717803
  49      0.43106035714439
  50      0.16160956449358
  51     0.025860455572609
  52     -0.01493070869251
  53    -0.012878611890658
  54     0.024197861078541
  55     0.043270063880792
  56    0.0011278927954296
  57    -0.00065123346187206
  58    -0.0003056907559923
 Sym= A
 Ene=               4
 Spin= Alpha
 Occup=    1.00000
   1    -0.0024548179346487
   2    -0.020539213258082
   3    -0.014488845560071
   4    -0.0014454389679024
   5    -0.00083961622978822
   6     0.025117709987187
   7    0.0055858828431967
   8    0.0032226618578453
   9      0.01463508611755
  10    0.0044197193432123
  11     0.014415347167155
  12    0.0083227097543532
  13    0.0018290033189724
  14    0.0031681574867363
  15    -0.013342858402086
  16      0.18317857472532
  17      0.10960610649095
  18      -0.2995131411168
  19     -0.17292868620068
  20      -0.1244111824275
  21     -0.14186650532388
  22    -0.081908695536974
  23    -0.061178376691759
  24    -0.0073244338427482
  25     0.012165614427677
  26    0.0070237717972072
  27    0.0091455669793172
  28     0.015839919920664
  29    -0.012308683881719
  30    -0.013714320149995
  31     0.000505384400347
  32    0.00068954317960884
  33    0.0019332212318006
  34     0.024197291978464
  35     0.043269875516993
  36    0.0011279716000915
  37    0.00065109485048907
  38    0.00030580531111831
  39    -0.020084983537841
  40    -0.037489430578175
  41    -0.0091966501317617
  42    -0.0078465196178729
  43    -0.0025521088991581
  44      0.43106041297195
  45      0.16160967624195
  46     0.025860697146928
  47     0.014930404430567
  48     0.012878393794607
  49    -0.012314680793371
  50    -0.013716375652034
  51    0.00084949278158072
  52    9.2962755367749e-05
  53    0.0019334105980499
  54    -0.020077780616731
  55    -0.037486871323226
  56    -0.011394064881529
  57    -0.0040411378521055
  58    -0.0025518506373257
 Sym= A
 Ene=               5
 Spin= Alpha
 Occup=    1.00000
   1    -0.013342411661804
   2       0.1831792665453
   3      0.10960674630965
   4    6.4465689744765e-06
   5     -0.34585102052823
   6       0.1244083702467
   7    2.9994935768522e-06
   8     -0.16381464767637
   9     0.061176996745089
  10    -0.0073242544483338
  11    3.1005596077254e-08
  12    -0.014047868317839
  13    -0.018290629798192
  14    2.0272720101768e-07
  15    -0.0024553962500621
  16     -0.02053966975819
  17    -0.014488908904675
  18    4.5246507370834e-06
  19    -0.0016666924854969
  20    -0.025114454165928
  21    1.9855012155307e-06
  22    0.0064511583365648
  23    -0.014633508857632
  24    0.0044199236009569
  25    1.4228492054011e-07
  26    -0.016645637878387
  27    -0.0036584763320404
  28    -2.2461255832285e-07
  29      0.43106075464133
  30      0.16160990744246
  31    1.2040459676801e-07
  32     0.029861191189401
  33    -0.012878489089306
  34    -0.020078545583432
  35    -0.037487415634201
  36    -0.0021971916945083
  37    -0.011888123232114
  38    0.0025518142635842
  39     0.024200259481741
  40     0.043271282406715
  41    1.3189380584141e-07
  42    0.0013023266112305
  43    -0.00030562121029796
  44    -0.012318154052755
  45    -0.013717696287683
  46    0.00034395137958191
  47    0.00078215425370313
  48    -0.0019334587645405
  49    -0.020086720488032
  50     -0.03749038417797
  51    0.0021969167858176
  52    -0.011887743876589
  53    0.0025520830434819
  54    -0.012312066106911
  55    -0.013715903515489
  56    -0.00034422515055762
  57    0.00078245731642538
  58     -0.00193325063755
 Sym= A
 Ene=               6
 Spin= Alpha
 Occup=    1.00000
   1    -0.0024547613916777
   2    -0.020539426266129
   3    -0.014488850036364
   4    0.0014459362235369
   5    -0.00083271648322622
   6     0.025115273285107
   7    -0.0055857627358609
   8     0.003225832437417
   9     0.014633986438145
  10    0.0044200284888677
  11     -0.01441555560119
  12    0.0083226316204541
  13    0.0018291783897666
  14    -0.0031681458393115
  15    -0.013342967256486
  16      0.18317848069785
  17      0.10960616378689
  18      0.29951784023417
  19     -0.17292100183049
  20      -0.1244108902135
  21      0.14186871053691
  22    -0.081905212485123
  23    -0.061178248690271
  24    -0.0073241421080842
  25    -0.012165975021416
  26    0.0070239001902977
  27    0.0091449785493878
  28    -0.015840260831181
  29    -0.012315040146916
  30    -0.013716477821448
  31    -0.00050537156392725
  32    0.00068912966609009
  33    0.0019333705170712
  34    -0.012312919964431
  35    -0.013716222869214
  36    -0.00084965537642573
  37    9.3057387961612e-05
  38    0.0019333102467598
  39    -0.020078654585103
  40    -0.037487155021477
  41    0.0091967929603035
  42    -0.0078468751109421
  43    -0.0025518992863167
  44    -0.020086816745948
  45    -0.037490566599703
  46     0.011393527758205
  47    -0.004041323393149
  48    -0.0025521731061233
  49      0.02419916777068
  50     0.043270841824252
  51    -0.0011278468602575
  52    0.0006512149420648
  53    0.00030569054486346
  54      0.43106066399776
  55      0.16161004585438
  56    -0.025860351265904
  57     0.014930754248193
  58     0.012878633975204
 Sym= A
 Ene=               7
 Spin= Alpha
 Occup=    1.00000
   1    -0.013342166655528
   2      0.18317885993246
   3      0.10960652881076
   4      0.29951331022532
   5      0.17292999516657
   6      0.12440855730818
   7      0.14186660031749
   8     0.081909386143263
   9     0.061177149978543
  10    -0.0073242239319835
  11     0.012165672800255
  12    0.0070240509373171
  13    0.0091455302515749
  14     0.015840024627439
  15    -0.0024551726102441
  16     -0.02053859619504
  17    -0.014488309364122
  18    0.0014441797754133
  19    0.00083513162912055
  20    -0.025115183393088
  21    -0.0055864697572132
  22    -0.0032248639007804
  23    -0.014633896443789
  24    0.0044198908617066
  25     0.014415408960512
  26    0.0083229474531767
  27    0.0018292514325004
  28     0.003168227022191
  29    -0.020086491580602
  30    -0.037490434554787
  31    0.0091966488668781
  32    0.0078464706520913
  33    0.0025520956528898
  34        0.431060615538
  35      0.16160995283669
  36    -0.025860609619634
  37    -0.014930471863897
  38    -0.012878473889333
  39    -0.012313262335634
  40    -0.013716546151919
  41    -0.00050542490614233
  42    -0.00068931422443987
  43    -0.0019333038512471
  44     0.024199712795553
  45     0.043270921393995
  46    -0.0011278396413022
  47    -0.00065112751717684
  48    -0.00030565349500383
  49     -0.02007890998512
  50    -0.037487264963142
  51      0.01139397559618
  52    0.0040412454959574
  53    0.0025518305803288
  54    -0.012314103113557
  55    -0.013716152332187
  56    -0.00084957289227544
  57    -9.3077838744491e-05
  58    -0.0019333302012516
 Sym= A
 Ene=               8
 Spin= Alpha
 Occup=    1.00000
   1     0.010944796035273
   2     -0.19885548032974
   3     -0.14954573836667
   4    -1.5290994836607e-07
   5    -4.7192763702968e-08
   6       0.3654825329864
   7    -1.5771234135429e-07
   8    -3.2417499239249e-08
   9      0.16964349128726
  10    -0.031880229961214
  11    -2.9113713258472e-07
  12    -4.3232829793669e-09
  13    -3.3032194904944e-09
  14    -7.6808005426942e-08
  15      0.01094528438505
  16     -0.19885642225733
  17     -0.14954641248547
  18    -1.5778581932271e-08
  19    4.3598874581276e-06
  20     -0.36548208448712
  21    4.2857918727888e-08
  22    2.0148656970219e-06
  23      -0.1696433068892
  24    -0.031880163969113
  25    -3.0661132987896e-07
  26    3.9018670437634e-08
  27    -1.7806772918474e-07
  28    -7.9841678840109e-08
  29     0.022180163613987
  30     0.037395713816807
  31    -1.4344485237052e-08
  32    -0.0013746636230846
  33    0.0091937490306816
  34     0.022179654940205
  35     0.037395035948902
  36    0.0011904736919872
  37    0.00068733142318043
  38    0.0091937686028576
  39     0.022182893271815
  40     0.037396748407477
  41    1.0587165271081e-08
  42    0.0013745439619773
  43    -0.0091936537616853
  44     0.022177405647356
  45      0.03739434783098
  46    -0.0011906747529335
  47    -0.00068731249483124
  48    -0.009193839041411
  49     0.022181534025817
  50      0.03739617316868
  51    -0.0011903953620125
  52    0.00068726524143576
  53    0.0091937143946399
  54     0.022179428133948
  55     0.037395445614407
  56    0.0011905595652358
  57    -0.00068724283275103
  58    -0.0091937780003281
 Sym= A
 Ene=               9
 Spin= Alpha
 Occup=    0.00000
   1     -0.97194950753482
   2      -1.9127135199147
   3        6.109744394322
   4    0.00063190420502093
   5    -0.018412199642147
   6     -0.20748789777316
   7    -0.021104476148244
   8    -0.059594332099712
   9      0.29730792362223
  10    -0.016940400821803
  11    -0.011732070541996
  12    -0.029967913155938
  13    -0.070704931792637
  14    -0.0046130577348163
  15     0.088823890350739
  16      0.10750986065574
  17      -1.5952675003124
  18    -0.00071768414367312
  19    -0.0020745695583548
  20     -0.16407925483102
  21    0.0028021174503153
  22    0.0053744392581843
  23     -0.87530684633218
  24     -0.07189164593901
  25    -0.0015368382953642
  26    -0.0017841970495138
  27     0.005834085578378
  28    0.00027743879288503
  29     -0.70238614987208
  30      -1.0068539049905
  31    0.0020856122187241
  32     -0.10955547286719
  33    -0.0013158387123058
  34     -0.61223678975372
  35      -0.9438544596847
  36     0.070101870519132
  37     0.032681910144913
  38    -0.017426610504928
  39     0.098422308467857
  40     0.019882117149173
  41    -0.00048096005275465
  42    0.00034162507592859
  43     0.045824518552815
  44     0.095563314673362
  45     0.016872725535581
  46    -0.00018711698421435
  47    -0.0018379292538964
  48     0.040598057700223
  49     -0.63016731838718
  50     -0.96384381411108
  51    -0.074203705480437
  52     0.037458068629053
  53    -0.017184438611901
  54     0.094897913462798
  55     0.017954054539695
  56    0.00031875456076126
  57    -0.0024693102635376
  58     0.042175852402236
 Sym= A
 Ene=              10
 Spin= Alpha
 Occup=    0.00000
   1     0.076379154923169
   2     0.088609549501205
   3      -1.3139147454973
   4    -0.00037499475360762
   5    0.0047826904419381
   6      0.15071430146157
   7    0.00066732051329603
   8     0.016577048667693
   9      0.69284686770998
  10    -0.070841925109762
  11    -0.00081390353608848
  12    -0.0045676114938932
  13    0.0071041850773498
  14    -0.0033594624652979
  15     -0.92810637557403
  16      -1.8285548954654
  17       5.7782920372901
  18    -0.011976739058704
  19     0.038171684680788
  20      0.27673800968461
  21    -0.014747087474371
  22    -0.019121410833813
  23      -0.6128706372644
  24    0.0091074998011404
  25    0.0049285039789911
  26    -0.028434972373162
  27    -0.070959395963109
  28     0.039627787348026
  29     0.092563683514125
  30     0.050169865421956
  31    -0.00075615552324263
  32    0.0026512296040473
  33    -0.040801477116638
  34      0.08457976626088
  35     0.045634530092735
  36    -0.0021539148785689
  37    -0.00075415753262249
  38    -0.038980728419668
  39       -0.668861681689
  40     -0.98867397151017
  41    -0.006550055349915
  42      0.11327651356005
  43      0.02723767966872
  44     -0.63093040887007
  45      -1.0025879636424
  46    -0.085794767979203
  47    -0.032132147244596
  48     0.035762746732398
  49     0.081619534514229
  50     0.045204057507073
  51    0.00071283234088953
  52    -0.00079538075175167
  53    -0.037557966619627
  54     -0.59196799162204
  55     -0.98577972044179
  56     0.069904819492239
  57    -0.030521645112426
  58     0.047343610800051
 Sym= A
 Ene=              11
 Spin= Alpha
 Occup=    0.00000
   1    -0.076192434850488
   2      -0.1470341182152
   3      0.54412762033561
   4    -0.010072009401612
   5     -0.29897517164093
   6     0.080392859946421
   7    -0.0086179975417755
   8       2.7925397273689
   9     -0.45131714003387
  10     0.013897323635144
  11    -0.016549680395646
  12      0.87330328055492
  13      0.50707544816176
  14    -0.021816286466793
  15     0.014146439525205
  16     0.015933752106977
  17     -0.43116072908621
  18    -0.0019053520868969
  19    0.0095592767876186
  20     -0.03791645682005
  21    -0.0029230357948888
  22     -0.54583450009287
  23     -0.27776583594821
  24    -0.012987226530474
  25    -0.0025096740995496
  26     0.060685197167611
  27    -0.015318542494071
  28    0.0020889229670529
  29       1.0611830614415
  30       1.4917230165487
  31    -0.0021153268949047
  32      0.28020117397892
  33    -0.031430835367263
  34      -0.5493870844639
  35     -0.70932951228707
  36      0.20491098097729
  37     -0.10701568063903
  38     0.054525741840714
  39     0.099998496022195
  40    -0.061481112678998
  41    -0.00031508443661941
  42    -0.010698924309647
  43    -0.082531818566803
  44    -0.028647291055073
  45    -0.030997537555788
  46    -0.039644551030725
  47     0.045465288487221
  48      0.04842700140161
  49     -0.57944459043332
  50     -0.72078461552432
  51     -0.21780971617951
  52     -0.10201121101412
  53     0.058862341560886
  54    -0.026087019960013
  55    -0.028626749316616
  56     0.039521254509899
  57     0.045173011335538
  58     0.050337738470888
 Sym= A
 Ene=              12
 Spin= Alpha
 Occup=    0.00000
   1    0.0074948233581751
   2    0.0094002392887403
   3     -0.20706334942163
   4     0.011397840550574
   5    0.00092687202925085
   6     0.016067094762195
   7     -0.54389840364549
   8    -0.004512958808698
   9      0.13329112906943
  10     -0.00485937313899
  11    -0.063605889765647
  12    -0.0019467636515163
  13    0.00061576910513514
  14     0.016447878211168
  15    -0.037001959178977
  16    -0.071398019323365
  17      0.26595154158938
  18     -0.29308699563644
  19    -0.00046397595562649
  20    -0.040723266146294
  21       2.8030276544384
  22     0.032221542048978
  23      0.21638970989025
  24    -0.00024266471594152
  25     -0.89049875291209
  26    -0.016423619870937
  27    -0.0095386538827662
  28      -0.5182673047055
  29    0.0068664846558841
  30    -0.018656081447889
  31     0.068414609000576
  32    -0.0022991988693372
  33    -0.0040370252362456
  34     0.080478410266164
  35    -0.039350910492758
  36    0.0070315312016473
  37     -0.03466566069468
  38     0.075061279665726
  39    -0.029066831367207
  40    -0.0086932607583873
  41     -0.22689342404131
  42    0.0027679844184615
  43    -0.014983071497098
  44      0.94545970860935
  45       1.2979452974967
  46      0.15894198995583
  47      0.22025684178564
  48     0.037604968687763
  49    -0.065221576528421
  50    -0.0004325757361397
  51    0.0044508909026828
  52     0.037703610094626
  53    -0.079102506149839
  54     -0.95440829668108
  55      -1.2624185763451
  56      0.14767226930027
  57     -0.21875961541798
  58    -0.065260332969817
 Sym= A
 Ene=              13
 Spin= Alpha
 Occup=    0.00000
   1     0.099234432815218
   2      0.11541204817581
   3      -2.9958459126257
   4    -0.0014014439517451
   5     0.001632900928189
   6      0.25308757798592
   7     0.035729076840913
   8    -0.057184970622493
   9       1.9379639327646
  10    -0.083128358780559
  11    0.0055966346492751
  12    -0.0075848956177571
  13    0.0016481257618833
  14    -0.00082186629688335
  15     -0.49300804892186
  16     -0.94936066609376
  17       3.5737159733576
  18     0.020016525986439
  19    -0.030994955774711
  20     -0.59542468385848
  21     -0.18962365817728
  22      0.29856074934543
  23       3.2432559618482
  24     0.071216724108298
  25     0.065596710293622
  26    -0.098334323578647
  27    -0.053325992932327
  28     0.030698483025979
  29     0.094215390383576
  30     -0.28745183429989
  31      -0.0045375825567
  32    -0.031647557951129
  33    -0.046354285666602
  34      0.10264682846255
  35     -0.28978125013025
  36     0.021814232833928
  37     0.022452893154836
  38    -0.037311573430738
  39     -0.25036640567929
  40     0.039153717185094
  41      0.01682861877107
  42     -0.01738646088815
  43     -0.20637414536958
  44     -0.13874202234054
  45      0.18882061386301
  46     0.054873706169433
  47    -0.0029619436327574
  48     -0.20024801162186
  49      0.11256296245508
  50     -0.29322497368821
  51    -0.022165737276562
  52      0.01741624968511
  53    -0.026519713593015
  54    -0.010344960454393
  55      0.36233545615158
  56    -0.075555195542158
  57     0.028410406942534
  58     -0.19539295002234
 Sym= A
 Ene=              14
 Spin= Alpha
 Occup=    0.00000
   1     -0.01079804015426
   2    -0.012521021946125
   3      0.32660649062237
   4    0.00081740155848074
   5     0.010344511574043
   6    -0.027681065041159
   7     0.006191033389097
   8     -0.54545970022336
   9     -0.21125217849301
  10    0.0091185165450846
  11    -0.00055757550151962
  12    -0.061960536203526
  13     0.015820229378779
  14    0.0010443588718206
  15     0.053873360200967
  16      0.10374862876241
  17     -0.39027157192987
  18    0.0080908189783087
  19     -0.29669511901612
  20     0.064723009628384
  21    -0.020108253651792
  22        2.799260961593
  23     -0.35318538902302
  24    -0.0080094089955326
  25    -0.00011101033495125
  26     -0.88126902828478
  27     -0.51234765387409
  28    -0.0080980680339522
  29    -0.095886640364699
  30     0.053297587577242
  31    -0.00041673041257758
  32    -0.011746573829916
  33    -0.084459659912843
  34     0.029726120488216
  35      0.02035044801092
  36    -0.038880723899245
  37     0.046124385336918
  38     0.048041643276958
  39      -1.0756665268677
  40      -1.4966449325491
  41    0.0034352398899037
  42      0.28198266696633
  43    -0.037276544178781
  44      0.55944683249493
  45      0.70817477844668
  46      0.21574254948777
  47     -0.10427298871122
  48     0.052279423965187
  49     0.032415607873959
  50     0.021135611777284
  51     0.038926643117691
  52     0.045617110869063
  53     0.048434655026532
  54      0.55990497745331
  55      0.72465432211896
  56     -0.21143150999703
  57     -0.10279509272995
  58      0.05043874506751
 Sym= A
 Ene=              15
 Spin= Alpha
 Occup=    0.00000
   1    -0.0097930755526477
   2    -0.019178666279262
   3     0.065656726313133
   4     -0.31165235982777
   5    0.00064634095894511
   6    0.0028923046698471
   7       2.8210736836491
   8    0.0071739630007224
   9    -0.0071129109155657
  10    -0.0088660406350157
  11       0.8772477244974
  12     0.011144501467818
  13    -0.0011999285780516
  14      0.48946265856892
  15    0.0019182919052714
  16    0.0034682281172059
  17    -0.021897585609878
  18    0.0088619611643643
  19     0.001110743830869
  20    0.00068049395572489
  21     -0.55396449731242
  22    0.00065885338582889
  23    -0.012773317082315
  24    0.0009513129959076
  25     0.060972734846271
  26    0.0021536248924524
  27    2.3729986861756e-05
  28    -0.013367776131422
  29    -0.0031612418895978
  30    -0.0040239279479546
  31     -0.23313381881126