[Molden Format]
made by pyscf v[2.0.1]
[Atoms] (AU)
O   1   8     0.00000000000000     0.00000000000000     0.00000000000000
O   2   8     2.75227162082039     0.00000000000000     0.00000000000000
H   3   1     3.06432366844540     0.00000000000000     1.80733789576484
H   4   1    -0.31205204762501     1.80733789576484     0.00000000000000
[GTO]
1 0
 s    6 1.00
             5484.6717   0.001831099805527
             825.23495   0.013950098518422
             188.04696    0.06844509273075
               52.9645    0.23271427528445
              16.89757    0.47019295006289
             5.7996353    0.35852086192309
 s    3 1.00
             15.539616   -0.11077750382508
             3.5999336   -0.14802630511126
             1.0137618     1.1307670390447
 s    1 1.00
             0.2700058                   1
 p    3 1.00
             15.539616   0.070874299543311
             3.5999336    0.33975279781076
             1.0137618    0.72715859531445
 p    1 1.00
             0.2700058                   1
 d    1 1.00
                   0.8                   1

2 0
 s    6 1.00
             5484.6717   0.001831099805527
             825.23495   0.013950098518422
             188.04696    0.06844509273075
               52.9645    0.23271427528445
              16.89757    0.47019295006289
             5.7996353    0.35852086192309
 s    3 1.00
             15.539616   -0.11077750382508
             3.5999336   -0.14802630511126
             1.0137618     1.1307670390447
 s    1 1.00
             0.2700058                   1
 p    3 1.00
             15.539616   0.070874299543311
             3.5999336    0.33975279781076
             1.0137618    0.72715859531445
 p    1 1.00
             0.2700058                   1
 d    1 1.00
                   0.8                   1

3 0
 s    3 1.00
             18.731137    0.03349459952309
             2.8253937    0.23472694665786
             0.6401217    0.81375731841339
 s    1 1.00
             0.1612778                   1
 p    1 1.00
                   1.1                   1

4 0
 s    3 1.00
             18.731137    0.03349459952309
             2.8253937    0.23472694665786
             0.6401217    0.81375731841339
 s    1 1.00
             0.1612778                   1
 p    1 1.00
                   1.1                   1

[5d]
[7f]
[9g]

[MO]
 Sym= A
 Ene=               0
 Spin= Alpha
 Occup=    2.00000
   1    -2.4362951648248e-05
   2    -0.00037807875390116
   3    0.0024690626723496
   4    0.0003002679091203
   5    7.0264056515682e-05
   6    2.5821252830235e-05
   7    0.0018887662267468
   8    5.8012343440197e-06
   9    5.2173108152084e-05
  10    -0.00013400706333308
  11    7.1966578336142e-05
  12    1.5719387721127e-06
  13    2.0478434264481e-05
  14    -4.8456683758437e-05
  15      0.99589119501581
  16     0.021852459385383
  17    -0.0080469356129633
  18    -0.0011141792546753
  19    -0.00060763267142121
  20    0.0018636670900293
  21    0.0024316694627762
  22    -0.00057490515262476
  23    -0.00086338604012627
  24    0.00071852533514695
  25    0.00015185303781224
  26    -2.5067367555323e-05
  27    -0.00071683935586005
  28    1.8766788348511e-05
  29    -0.00029186152335431
  30    0.0013594215890095
  31    3.3872659077447e-05
  32    -1.5685926569402e-05
  33    0.0011856929132647
  34    -0.00035093826842409
  35    0.00051120117832958
  36    5.7467296670178e-05
  37    9.6604935947457e-06
  38    -3.8264546476594e-06
 Sym= A
 Ene=               1
 Spin= Alpha
 Occup=    2.00000
   1      0.99575112545428
   2     0.022176054815158
   3    -0.0076553401475827
   4    0.00098635227109309
   5    0.0015965755150922
   6    -4.9099121786562e-05
   7    -0.0025200642299569
   8    -0.0010395442345853
   9    -0.00016572191579739
  10    0.00027327971364014
  11    -9.9103070917041e-06
  12    -7.2718897393764e-06
  13    -0.00097359757853113
  14    -0.00015910365275486
  15    -1.7673583172349e-05
  16    -0.00039603444524755
  17      0.00245071789868
  18    -0.00026023135284534
  19    4.1965214013751e-05
  20    4.3954497194666e-05
  21    -0.0018464868378001
  22    7.5857704202734e-05
  23    -3.3639506027421e-05
  24    4.5824383143091e-05
  25    3.5945501354014e-05
  26    2.5045321169415e-06
  27    0.00012888857119178
  28    -6.5685089009104e-05
  29    -0.00037808548914858
  30    0.00050452425741658
  31    -5.7434571298239e-05
  32    -3.0508418634357e-06
  33    1.0538660956919e-05
  34    -0.00034929951893739
  35    0.0013017336122875
  36    -3.7900995759441e-05
  37    0.0011816462247952
  38    1.2601765217363e-06
 Sym= A
 Ene=               2
 Spin= Alpha
 Occup=    2.00000
   1     -0.12849327010043
   2       0.2956740986772
   3      0.35732743675954
   4     -0.11665048674915
   5     -0.24369864466599
   6      0.48404041107513
   7    -0.080846907212333
   8     -0.16072287793108
   9      0.35465105532436
  10     0.010616292166109
  11    0.0076772890848215
  12     0.015372937855342
  13    0.0064481761126253
  14    -0.0066213503329149
  15    0.0061349375949934
  16    -0.016495196674144
  17    -0.017466483151632
  18     0.036389034667668
  19     0.014727462734625
  20    -0.023048315297856
  21     0.038453358447978
  22     0.021620187545422
  23    -0.034552003029029
  24    -0.0030612781334448
  25    -0.010783927700225
  26    0.00082621062123984
  27    0.0023803352153784
  28    0.0057314004327133
  29    -0.023588160958395
  30    -0.0051685961820128
  31    8.2462050014307e-05
  32    0.0007078082666757
  33    0.00076227371858984
  34    -0.052286622519821
  35    -0.052831745394342
  36    -0.0036667463439402
  37    -0.0037008569673602
  38     0.014674750804626
 Sym= A
 Ene=               3
 Spin= Alpha
 Occup=    2.00000
   1    0.0061338846617913
   2    -0.016493110002865
   3    -0.017458210823326
   4    -0.036384656813273
   5    -0.023050004574694
   6     0.014725644444401
   7    -0.038446911260346
   8    -0.034554385866506
   9     0.021617450948059
  10    -0.0005306365801657
  11    -0.0057305850358082
  12    0.00082622084268064
  13    0.0038411695697367
  14      0.01078541556822
  15     -0.12735489999112
  16      0.29565949178664
  17      0.35727316759359
  18      0.11663433599371
  19      0.48409618421741
  20     -0.24366533065175
  21     0.080838455199958
  22      0.35469158646692
  23     -0.16070331424889
  24     -0.01089050662438
  25    0.0066206509245179
  26     0.015374942010495
  27    -0.0059702877726741
  28     -0.00767814804472
  29    -0.052280640622867
  30    -0.052822540897412
  31    0.0036663538281458
  32     0.014676499784829
  33    -0.0036990442914297
  34    -0.023591193940476
  35    -0.005171701232475
  36    -8.2147787912495e-05
  37    0.00076238625443792
  38    0.00070771310344879
 Sym= A
 Ene=               4
 Spin= Alpha
 Occup=    2.00000
   1    0.0038715668946601
   2    -0.010829131513062
   3    -0.031198946664265
   4    -0.028018453632186
   5    -0.0038098788518512
   6     -0.01533697509365
   7     -0.03763436223068
   8    -0.0004748409409324
   9    -0.030735682870832
  10    -0.00036235180112497
  11    0.0090051659421651
  12    -0.00033271523341908
  13    0.0031213432359891
  14    -0.00066323375715317
  15     -0.11341477171477
  16      0.25205043448716
  17      0.18164095402019
  18     0.069163504353891
  19    0.0011132599150239
  20      0.43004394931083
  21     0.020766460155783
  22    0.0020402106398881
  23      0.25092003466696
  24     0.025871428292822
  25    -0.0013623013001276
  26    0.0016190340453012
  27    -0.0023475950888179
  28    4.7653487315997e-05
  29      0.30629373114021
  30      0.10819728340543
  31    -0.0045106272353674
  32    0.00066841593999975
  33    -0.034170170305884
  34    -0.0001472037646331
  35    -0.0031527213638977
  36    -0.0020734207716926
  37    0.00016246568516551
  38    -0.00088961610183361
 Sym= A
 Ene=               5
 Spin= Alpha
 Occup=    2.00000
   1     -0.11341458816088
   2      0.25205044771653
   3      0.18164096464294
   4    -0.069163506182341
   5      0.43004394384294
   6    0.0011132657467522
   7    -0.020766460582177
   8      0.25092003133382
   9    0.0020402143293841
  10    -0.010902636710778
  11    -4.7653080539117e-05
  12     0.001619034206912
  13    -0.023579112089839
  14    0.0013623007416827
  15    0.0038717249876002
  16    -0.010829153736635
  17    -0.031198975996868
  18     0.028018446899394
  19    -0.015336989686029
  20    -0.0038098666376239
  21     0.037634358153259
  22    -0.030735693342058
  23    -0.00047483322125648
  24    -0.0025219860681507
  25    0.00066323325288843
  26    -0.00033271567365968
  27    0.0018744777314693
  28    -0.0090051655443591
  29    -0.00014720409891156
  30    -0.0031527181203363
  31    0.0020734206171604
  32    -0.00088961653388964
  33    0.00016246655290158
  34      0.30629373046539
  35      0.10819728211841
  36    0.0045106271711709
  37    -0.034170170202567
  38    0.00066841610166115
 Sym= A
 Ene=               6
 Spin= Alpha
 Occup=    2.00000
   1      0.13688906737643
   2     -0.32138828750203
   3     -0.37044319761201
   4      0.12170265056411
   5      0.25569089318884
   6      0.45780178340609
   7     0.091456351387769
   8      0.16822534867317
   9      0.33389279959316
  10    -0.0074753754305627
  11    0.0071349421115191
  12     0.016489897665418
  13    -0.0062647467474385
  14    0.0071054611956754
  15    -0.0081099586848419
  16     0.020085217186459
  17     0.044397595834314
  18    -0.032868585103755
  19    -0.015609360369853
  20     -0.01424551884374
  21    -0.035257213920961
  22    -0.023249703708077
  23    -0.019271841865676
  24    -4.0318417189318e-05
  25    -0.012511421240431
  26    4.8785738669217e-05
  27    -0.0028735961344608
  28    -0.006004564869802
  29    -0.021434604669834
  30    -0.029927878668871
  31    -0.0020280117304423
  32    -0.0007584144077282
  33    0.00084340364611558
  34      0.05171521984692
  35     0.062868066604283
  36    0.0035212763861259
  37    0.0039156019392275
  38     0.014328055541357
 Sym= A
 Ene=               7
 Spin= Alpha
 Occup=    2.00000
   1     0.008110756226301
   2    -0.020087302277572
   3    -0.044399878421051
   4    -0.032873149046299
   5     0.014242738684248
   6     0.015611228632451
   7    -0.035262040129093
   8     0.019267630871711
   9     0.023252397559821
  10    -0.0025088244378236
  11    -0.0060052694066505
  12    -4.8682185494189e-05
  13    0.0014023407476873
  14    -0.012510100222774
  15      -0.1369337466827
  16      0.32142388022627
  17      0.37048723498153
  18      0.12171709210052
  19     -0.45774240775438
  20     -0.25572082620534
  21     0.091466258554352
  22     -0.33384929567748
  23     -0.16824503545149
  24    -0.0091644678746553
  25    0.0071062709132574
  26    -0.016488011677675
  27    -0.0033422119847683
  28    0.0071339997106567
  29    -0.051721615903271
  30    -0.062874573698798
  31    0.0035217271599933
  32     -0.01432625543366
  33    -0.0039160899918085
  34     0.021431743607967
  35     0.029927255173751
  36    -0.0020280253238125
  37    -0.00084331024511826
  38    0.00075850342365048
 Sym= A
 Ene=               8
 Spin= Alpha
 Occup=    2.00000
   1     0.057592408754472
   2     -0.11860329588224
   3    -0.069258179411545
   4     -0.40533948673804
   5    0.0084350427405007
   6    0.0039604987444641
   7     -0.25490774366084
   8    -0.012327162230846
   9    -0.0030902002759295
  10      0.01679436853675
  11    -0.0025766703530003
  12    1.1702626235572e-05
  13    -0.035596080574093
  14    -0.014579386504885
  15     0.057592449293696
  16     -0.11860334963404
  17    -0.069258246349212
  18      0.40533947241174
  19    0.0039606819491284
  20    0.0084350913175504
  21      0.25490773351642
  22    -0.0030900644675179
  23    -0.012327125533248
  24     0.022429927470903
  25      0.01457939001282
  26    1.1708787403634e-05
  27    -0.032342389422826
  28    0.0025766685031044
  29     0.028283153973036
  30     0.052076294326433
  31    0.0089646249936052
  32    0.00058812490223111
  33    0.0011597121033184
  34     0.028283136362241
  35     0.052076274449098
  36    -0.008964624998591
  37    0.0011597119227814
  38    0.00058811917634305
 Sym= A
 Ene=               9
 Spin= Alpha
 Occup=    0.00000
   1    0.00038575611263725
   2      -1.5368284136514
   3       3.3484348181536
   4    -0.026426771555975
   5     -0.10142896021024
   6       0.3194108832982
   7      0.86964869641421
   8       1.0358680051625
   9     -0.39216645561647
  10     -0.50325566521893
  11    -0.042192810465855
  12    -0.017022241534667
  13       0.2580126649549
  14      -0.2932418342413
  15     0.048494137337094
  16      0.14987756440598
  17       -1.202422906376
  18      0.16601781202223
  19    -0.011031027105817
  20     0.017426183298208
  21      0.99237424870646
  22    -0.050790000240452
  23      0.10571640193899
  24      0.14868745970921
  25    -0.019976385782427
  26    0.00013992416942771
  27      -0.2781900838555
  28     0.030885413193468
  29     0.028023894809078
  30      -0.0898039404427
  31    -0.038246237427325
  32    0.00045937479149397
  33     0.029420632327903
  34     -0.72011214370488
  35     -0.92789617345927
  36     -0.03538616214703
  37      0.21174686675925
  38     0.036071922960243
 Sym= A
 Ene=              10
 Spin= Alpha
 Occup=    0.00000
   1      0.02542936192798
   2       0.1181860783584
   3     -0.70483817684896
   4    -0.068202467090191
   5    0.0094740345993811
   6    -0.016915741415193
   7     -0.61314086670019
   8      0.05040344911306
   9     -0.08699788072335
  10     0.097641172072322
  11    -0.055143046492394
  12    -0.00069953981384701
  13     -0.14836064700997
  14     0.012359041453077
  15    0.0042680589482418
  16      -1.5199059822688
  17       3.3001836186578
  18     -0.16928146085133
  19       0.1714497207735
  20     -0.11222370385212
  21     -0.18193466842825
  22     -0.21113129665542
  23       1.4030146846507
  24      0.47163586656588
  25      0.30017945828871
  26     -0.01233401306047
  27      0.26520307687703
  28     0.042585698450585
  29       -1.024824029645
  30      -1.2291153030814
  31     0.046426842014609
  32     0.019469907448112
  33      0.35885646313455
  34     0.025802375422732
  35    -0.040914291807107
  36     0.026769950028627
  37     0.015804805342411
  38    0.0025764959895866
 Sym= A
 Ene=              11
 Spin= Alpha
 Occup=    0.00000
   1    -0.017327275062364
   2      0.31018722659269
   3     -0.51480029212187
   4     -0.55387406973547
   5    0.00058247641507266
   6      0.31422902925681
   7       1.5537535720986
   8     -0.91627526821825
   9     -0.38970066701485
  10    -0.0027965817772991
  11    -0.083818715595574
  12    -0.006572391112095
  13       1.0086411035613
  14      0.12880629768874
  15     0.041357667042389
  16     0.044494996776353
  17     -0.93408326322925
  18      0.18415936467741
  19     0.012066363097758
  20     0.019161807602145
  21      0.69374041820821
  22     0.063087799060455
  23      0.13878415811509
  24      0.12548853031873
  25    -0.029709602260701
  26    0.0011953445103174
  27      -0.2047125852358
  28      -0.0439324336803
  29    -0.010128664364624
  30     -0.10338304022347
  31    -0.015348609234714
  32    -0.0028003164385464
  33     0.026028101896423
  34      0.74364318420314
  35      0.85385354746141
  36    -0.0088953761907492
  37     -0.34644924111349
  38     0.032231502073252
 Sym= A
 Ene=              12
 Spin= Alpha
 Occup=    0.00000
   1    -0.011626065320537
   2    -0.025752297699825
   3      0.25572148423104
   4     0.028559071864678
   5    -0.016398496267684
   6     0.019669575273197
   7      0.20078446557893
   8    -0.055636949784347
   9      0.11708845484281
  10    0.0042261423600164
  11     0.035187944707202
  12    0.0022207579691521
  13     0.026202493472881
  14    0.0051541660339871
  15    -0.0011646938509923
  16     0.058539801303259
  17      0.22873633255791
  18     0.041102548276408
  19    -0.012515503053754
  20     -0.05763824363326
  21      0.31933209394993
  22    -0.049361737534871
  23    -0.0060631122341925
  24     -0.17000206214717
  25      0.06323163830094
  26    -0.040902310227018
  27    -0.032452435342643
  28    -0.006136216448469
  29       1.0731652983292
  30      -1.5044370665601
  31     -0.44027275400951
  32      0.20026985514091
  33      0.18710840195099
  34    0.0076151236190562
  35      0.15983640657433
  36    0.0072189658943133
  37    -0.017939222714713
  38    -0.0031567967805465
 Sym= A
 Ene=              13
 Spin= Alpha
 Occup=    0.00000
   1    -0.0016649315028112
   2     0.060400838859073
   3       0.2354018225038
   4    -0.041834310561128
   5    -0.053421916427729
   6    -0.012597184314947
   7     -0.32030210686187
   8    -0.0010654303490788
   9     -0.04958260718322
  10      0.11123118956926
  11    0.0061604732339179
  12    -0.041098563697757
  13      0.12782723402615
  14    -0.064238046825264
  15    -0.011626570948573
  16    -0.025895563451606
  17      0.25580890817813
  18    -0.028529462025596
  19     0.019512907068948
  20    -0.016383415487212
  21     -0.20090778173724
  22      0.11683179098108
  23    -0.055666832652058
  24    -0.024868837154049
  25    -0.0051823113626538
  26    0.0022302031477024
  27    0.0095440574512064
  28    -0.034999896433681
  29    0.0075719591173392
  30      0.16002238154827
  31    -0.0071946337603375
  32    -0.0031727906686985
  33    -0.017965096832966
  34       1.0666708783144
  35      -1.5078996652779
  36      0.43819399275023
  37      0.19855522237357
  38      0.20123001818301
 Sym= A
 Ene=              14
 Spin= Alpha
 Occup=    0.00000
   1     0.088536682182688
   2     -0.41976401831275
   3     -0.34565905277875
   4      0.13601442755688
   5     -0.60981422745841
   6    -0.00016359491976665
   7     0.053381385976503
   8     -0.39644405200038
   9    -0.0029333911037321
  10     0.047522220751315
  11    0.00036175883602556
  12    -0.0016812554421756
  13     0.077614063045283
  14     0.017066044946737
  15    0.0051169670346902
  16    -0.032712234124665
  17    -0.0072452218112824
  18    0.00058683139920585
  19     0.014335281370937
  20     0.013226596119491
  21    -0.018887335492966
  22     0.029606142477341
  23    0.0026937211110878
  24    -0.0011079441819031
  25    -0.001025158626981
  26    0.00077049689819277
  27    -0.0049643250970005
  28    -0.0032857473665776
  29    -0.023210454037523
  30    -0.0033928242872555
  31    -0.0011905987455732
  32    -0.00028635017471364
  33    -0.0018590670783492
  34      0.88646358033284
  35       0.5528429286563
  36     0.017573676441884
  37    -0.078342185616682
  38    0.0021281176304237
 Sym= A
 Ene=              15
 Spin= Alpha
 Occup=    0.00000
   1    -0.012724325909393
   2    -0.046990387197282
   3      0.30863584078821
   4      0.03492276843846
   5    -0.011219689631572
   6    -0.039802180775457
   7      0.27728753510134
   8    -0.099315687470055
   9      -0.2931450428772
  10    -0.024230717430628
  11     -0.15359634079523
  12    -0.008181912779775
  13     0.061046845802861
  14    -0.013812289994648
  15    -0.036730878158355
  16      0.30836210008938
  17     -0.09050382482951
  18     0.012227664749836
  19     -0.25464765139878
  20     -0.74871345811503
  21      0.35342904676579
  22      0.31291836238303
  23        1.417094597223
  24      0.15363361974024
  25     -0.42539953397616
  26     0.018004599148455
  27    -0.080232673314854
  28     0.010399959246548
  29     -0.39705587977582
  30     -0.49949833207338
  31     0.086658543010807
  32    -0.031051486738776
  33     0.022967455235087
  34    0.0067772530016069
  35     0.082443451142877
  36    -0.016077603137857
  37    -0.015815545054229
  38     0.024178410685172
 Sym= A
 Ene=              16
 Spin= Alpha
 Occup=    0.00000
   1    -0.020462089803713
   2     -0.10337787089839
   3      0.91586048066257
   4     0.066610287808078
   5    0.0025402424259007
   6     0.004047377994694
   7       0.6738794349765
   8      0.01884118511003
   9      0.04832245475075
  10    -0.063217936184891
  11     0.026022883301444
  12    -0.00049213128175253
  13     0.065359450772785
  14     0.047852124920244
  15     0.026759500446586
  16      0.31661947766709
  17      -1.0930626941125
  18     -0.68688039798946
  19      -0.1684101985555
  20      0.10145301260998
  21        1.513822562934
  22      0.17762523717126
  23     -0.29543995271796
  24     -0.17714803081149
  25    0.00052152127029875
  26     0.044506645160745
  27      0.20049912714119
  28      0.43223186719072
  29      0.25648292308457
  30      0.01577526958083
  31     -0.14776777524281
  32    -0.038741971366261
  33    -0.055671542078311
  34    -0.068808578587396
  35       0.1365996444022
  36    -0.023807300091837
  37    -0.008946402153881
  38    -0.001941081453957
 Sym= A
 Ene=              17
 Spin= Alpha
 Occup=    0.00000
   1    -0.00044571716532343
   2    -0.020501039221825
   3     0.017075013643699
   4    -0.0043791933597354
   5    0.00038596489195171
   6    -0.019241790995309
   7     0.021843785366317
   8    -0.010789731032495
   9    -0.024932306640347
  10    -0.0060516626328415
  11    -0.023567670366149
  12    0.00066152441565332
  13     0.013542541734753
  14    0.0016663046275105
  15    -0.063513676421748
  16      0.23588846884846
  17      0.86204630464635
  18     0.090315666980812
  19    0.0010350110388019
  20      0.53150135168468
  21      0.11890862747514
  22    0.00078327084521011
  23      0.63386492944835
  24      0.46004786033959
  25      0.11688218535114
  26    0.0022137954060097
  27    0.0024924709169948
  28    0.00033172004289905
  29     -0.76619310566625
  30     -0.51527950671913
  31      0.30744943232653
  32    -0.011073434258624
  33       1.4450340479538
  34    -0.0053283552414072
  35     0.029447866772587
  36    -0.0041457654759849
  37    -0.0036935356309034
  38    -0.0023507147975329
 Sym= A
 Ene=              18
 Spin= Alpha
 Occup=    0.00000
   1     0.033852467651482
   2       0.1221392426472
   3     -0.96693373569252
   4     -0.12863782281124
   5     0.018387575624112
   6    -0.0077212026713353
   7     -0.80310305535521
   8     -0.10245618274662
   9     0.015089915908768
  10      0.12226542230152
  11    -0.016297634900515
  12    -0.0014572761361374
  13     -0.17284294946066
  14      -0.0356882601469
  15    0.0093603971593635
  16     -0.76770608433583
  17       1.4861755139523
  18      0.28218949018192
  19       -0.713309526319
  20      0.19547872627528
  21      -1.1874087815983
  22       0.8818488707616
  23     -0.25764230506164
  24     -0.18727633991574
  25     -0.25646941074714
  26      0.05989573371791
  27      0.27122022357202
  28      0.21729725140152
  29     0.029603281050524
  30      0.04039056303641
  31      0.10994224505934
  32    -0.094928163516853
  33    -0.045764883388924
  34     0.090312476423431
  35     -0.24941137082632
  36    -0.00080273213198598
  37     0.023891252281241
  38    -0.00062819565495337
 Sym= A
 Ene=              19
 Spin= Alpha
 Occup=    0.00000
   1    -0.063481460668321
   2      0.23611607809473
   3      0.85506336578744
   4    -0.091904678175485
   5       0.5328488658176
   6    0.0012476486850668
   7     -0.12216465112915
   8      0.63341978055904
   9    0.0016225223277286
  10     -0.23417125433162
  11    -0.00041759342753684
  12    0.0029035179144485
  13      -0.3987357942736
  14     -0.12250092582655
  15    -0.00034875758915537
  16    -0.019329539694406
  17     0.015650913402337
  18    0.0039858323540138
  19    -0.019382944077802
  20    0.00071174269026579
  21      -0.0195411368902
  22    -0.028108074665036
  23    -0.0098514719354074
  24    -0.0084618234136193
  25    -0.0015032165833992
  26    0.00056829696327282
  27     0.012466165894683
  28     0.023497663139945
  29    -0.0052946909127055
  30     0.026485029972965
  31    0.0039673563433443
  32    -0.0021236349973698
  33    -0.0034096351767753
  34     -0.78854745221308
  35     -0.48555997061448
  36      -0.2832725650218
  37       1.4486763145727
  38    -0.014448289379223
 Sym= A
 Ene=              20
 Spin= Alpha
 Occup=    0.00000
   1    0.0091472070474962
   2     -0.77270846926531
   3       1.5008596683596
   4     -0.28764926163196
   5      0.19468277005777
   6     -0.71293507993029
   7       1.1970017561305
   8     -0.24998850914391
   9       0.8817222897817
  10      -0.1393693418738
  11     -0.21216695189943
  12     0.059268456293382
  13      0.28845999312877
  14      0.25492532663228
  15      0.03383097432298
  16       0.1230995590926
  17     -0.97221894590868
  18      0.12826103178345
  19    -0.0077859866218036
  20     0.018269692481791
  21      0.80697108862205
  22     0.014422748190493
  23     -0.10327032715851
  24     0.088049528720171
  25     0.036340809807559
  26    -0.0014469231245256
  27     -0.19199842808499
  28     0.016681189756799
  29      0.09112437469104
  30      -0.2505604082777
  31    0.00063236833007327
  32    -0.00061327741722548
  33     0.023849479326465
  34     0.022649716948472
  35     0.035995106695846
  36     -0.11155375668308
  37    -0.043124513589607
  38    -0.094618593479841
 Sym= A
 Ene=              21
 Spin= Alpha
 Occup=    0.00000
   1     0.031452840356709
   2      -0.3622191001901
   3      0.26638155521372
   4      0.14479807176998
   5      0.15640678447247
   6      0.29486779370718
   7    -0.041475558965087
   8     -0.30486308413194
   9     -0.35677690554538
  10      0.14668323297782
  11      0.13993793937578
  12     0.028178047113973
  13     0.066657795530455
  14      0.96602404887417
  15    0.0026116696239719
  16     0.020910244013739
  17    -0.065060432124596
  18    0.00092443927433405
  19    -0.035572683459091
  20    3.8773746992524e-05
  21     0.066554705570439
  22    -0.085323901389375
  23     0.058135430134218
  24    0.0064942181655379
  25    -0.0031768468675338
  26    -0.0043499764764785
  27    -0.014624203449942
  28      0.10152213812646
  29    -0.009619970996586
  30    -0.0015951700456391
  31    -0.011786415717573
  32     0.010550690575994
  33    0.0045387915794553
  34      0.23543772861769
  35     0.042994158888272
  36     -0.15472163911676
  37     -0.13456902588536
  38      0.02930692176019
 Sym= A
 Ene=              22
 Spin= Alpha
 Occup=    0.00000
   1    -0.0026418487640468
   2     -0.02080269211747
   3     0.064842080888556
   4    0.0010739196321655
   5    -9.6858240458922e-05
   6      0.03538784702107
   7     0.066475156998313
   8    -0.058779966525966
   9     0.084025932782795
  10    -0.0094241937198293
  11      0.10079446327181
  12    0.0043153238685615
  13     0.013124251119602
  14    -0.0033726017580432
  15    -0.031610258246517
  16      0.36071720829384
  17     -0.26042347293123
  18      0.14521030262791
  19     -0.29627120606127
  20     -0.15911410198005
  21    -0.041264896394193
  22      0.35856687386214
  23      0.31287146185647
  24       0.1340494530657
  25      0.96475946903313
  26    -0.028038686461663
  27     0.093054483130199
  28      0.13923223369525
  29     -0.23951239681369
  30    -0.047104704081809
  31     -0.15401947500559
  32    -0.029466455828234
  33      0.13568520696445
  34    0.0098560448017628
  35    0.0016665576556902
  36    -0.011802513736048
  37    -0.0045936187746557
  38    -0.010454559905567
 Sym= A
 Ene=              23
 Spin= Alpha
 Occup=    0.00000
   1    0.0024689403588662
   2    0.0063442662885465
   3    -0.049600156945394
   4    -0.0030268186208842
   5    0.0097057981529452
   6    -0.0038583874372122
   7    -0.037859766298639
   8     0.050359662995323
   9    -0.027503480155181
  10    -0.0027832913822595
  11    -0.0058289944813326
  12    0.0053187304329938
  13    -0.0040678813946404
  14     0.016696473744337
  15    -0.0006030141648655
  16    -0.0044362058561903
  17     -0.04703485748341
  18    -0.0017386937609209
  19    -0.092030919239561
  20     0.019435662834633
  21    -0.039804155927219
  22     -0.23798650628714
  23     0.007602355412909
  24      0.03946404953405
  25    0.0066008805683346
  26     -0.22227909526936
  27    0.0079589490457361
  28    -0.028778580287113
  29     -0.24477948316941
  30      0.31612265526549
  31    0.0084375680893819
  32       1.0888289249974
  33    -0.0035248876744807
  34    -0.0041192193131884
  35    -0.022768034544235
  36    0.0052155419234977
  37    0.0019944848543883
  38    -0.00021655474076705
 Sym= A
 Ene=              24
 Spin= Alpha
 Occup=    0.00000
   1    -0.00057257444638613
   2    -0.004589325357837
   3    -0.047745672609918
   4    0.0017860552520022
   5     0.019267083770294
   6    -0.092016139434371
   7     0.040072384087991
   8    0.0073108801999981
   9     -0.23792781616236
  10    -0.026650561863962
  11     0.028771873790546
  12     -0.22223105656274
  13    -0.030155844971543
  14    -0.0065942765963819
  15    0.0024807335383604
  16     0.006396638559608
  17     -0.04985090231443
  18    0.0030421411366253
  19    -0.003868860122867
  20    0.0097253674569174
  21      0.03808202812872
  22    -0.027648345223269
  23     0.050428697240723
  24    0.0049440158550087
  25    -0.016688185435428
  26    0.0053147014621212
  27    0.00037098185215299
  28    0.0058469267416317
  29    -0.0041227973257372
  30    -0.022970868741148
  31    -0.0052143875503645
  32    -0.00020862940665543
  33    0.0020167932158736
  34      -0.2457420435177
  35      0.31816640919603
  36    -0.0082402200991152
  37    -0.0042766263847451
  38       1.0885937982141
 Sym= A
 Ene=              25
 Spin= Alpha
 Occup=    0.00000
   1     0.047988131315215
   2     0.057029189280476
   3     -0.95768425128423
   4     -0.20256423081186