[Molden Format]
made by pyscf v[2.0.1]
[Atoms] (AU)
O   1   8     0.00000000000000     0.00000000000000     0.00000000000000
O   2   8     2.75227162082039     0.00000000000000     0.00000000000000
H   3   1     3.06432366844540     0.00000000000000     1.80733789576484
H   4   1    -0.31205204762501     0.61814596614740    -1.69834208391695
[GTO]
1 0
 s    6 1.00
             5484.6717   0.001831099805527
             825.23495   0.013950098518422
             188.04696    0.06844509273075
               52.9645    0.23271427528445
              16.89757    0.47019295006289
             5.7996353    0.35852086192309
 s    3 1.00
             15.539616   -0.11077750382508
             3.5999336   -0.14802630511126
             1.0137618     1.1307670390447
 s    1 1.00
             0.2700058                   1
 p    3 1.00
             15.539616   0.070874299543311
             3.5999336    0.33975279781076
             1.0137618    0.72715859531445
 p    1 1.00
             0.2700058                   1
 d    1 1.00
                   0.8                   1

2 0
 s    6 1.00
             5484.6717   0.001831099805527
             825.23495   0.013950098518422
             188.04696    0.06844509273075
               52.9645    0.23271427528445
              16.89757    0.47019295006289
             5.7996353    0.35852086192309
 s    3 1.00
             15.539616   -0.11077750382508
             3.5999336   -0.14802630511126
             1.0137618     1.1307670390447
 s    1 1.00
             0.2700058                   1
 p    3 1.00
             15.539616   0.070874299543311
             3.5999336    0.33975279781076
             1.0137618    0.72715859531445
 p    1 1.00
             0.2700058                   1
 d    1 1.00
                   0.8                   1

3 0
 s    3 1.00
             18.731137    0.03349459952309
             2.8253937    0.23472694665786
             0.6401217    0.81375731841339
 s    1 1.00
             0.1612778                   1
 p    1 1.00
                   1.1                   1

4 0
 s    3 1.00
             18.731137    0.03349459952309
             2.8253937    0.23472694665786
             0.6401217    0.81375731841339
 s    1 1.00
             0.1612778                   1
 p    1 1.00
                   1.1                   1

[5d]
[7f]
[9g]

[MO]
 Sym= A
 Ene=               0
 Spin= Alpha
 Occup=    2.00000
   1    -1.8802591640476e-05
   2    -0.00040721788275555
   3    0.0025051309369084
   4    0.00024819293893285
   5    2.9178021090977e-05
   6    4.7127368261739e-06
   7    0.0018349846548362
   8    2.2404025500626e-05
   9    7.9065819122142e-05
  10    -9.8793901952064e-06
  11    8.9300974917343e-05
  12    -5.7127727461746e-05
  13    8.9862338195298e-05
  14    -1.4745465408643e-05
  15      0.99570966570197
  16     0.022280117971419
  17    -0.0075671480144901
  18    -0.00095404545998726
  19    -0.00022605723384129
  20    0.0014628442597319
  21    0.0025453715205693
  22    -0.00021290604166218
  23    -0.0010236938668029
  24    0.00069552543317384
  25    0.00015498970537187
  26    -3.1275000003756e-06
  27    -0.00073365465841049
  28    6.8236266292008e-06
  29     -0.00038793803225
  30    0.0013135902969493
  31    3.3462173286077e-05
  32    -6.3306337585936e-06
  33    0.0011686419614261
  34    -0.00041166583616605
  35    0.00044895282980654
  36    2.9975393100848e-05
  37    6.7810308792979e-06
  38    -2.3345563530505e-05
 Sym= A
 Ene=               1
 Spin= Alpha
 Occup=    2.00000
   1      0.99579831112209
   2     0.022075015802608
   3    -0.0078111892737729
   4    0.0010338924845888
   5    0.00033165917159414
   6    -0.0016156259776123
   7    -0.002488709187098
   8    -0.00052186410895335
   9    0.00077802992506953
  10    0.00065400772972256
  11    0.00013832648675187
  12    -0.00015302732842578
  13    -0.00075813668455572
  14    -5.7990068299973e-05
  15    -2.3204202791284e-05
  16    -0.0003950218242905
  17    0.0025187005179838
  18    -0.0002722667005714
  19    2.626626367387e-05
  20    1.552018628585e-05
  21    -0.0018610537506285
  22    4.4058347383545e-05
  23    -5.3878425763519e-05
  24    1.6595441360772e-05
  25    9.2567945679845e-05
  26    2.0027429738744e-05
  27    0.00010262558188812
  28    -1.7743506372898e-05
  29    -0.00040227901289543
  30    0.00045026061303206
  31    -3.0744964117242e-05
  32    -1.7310660067011e-06
  33    2.3846593469552e-05
  34    -0.00035291028227009
  35    0.0013493711804016
  36    -3.0992204942821e-05
  37    0.00039408745750532
  38    -0.0011026047643198
 Sym= A
 Ene=               2
 Spin= Alpha
 Occup=    2.00000
   1    -0.0010875810850008
   2    0.0021945928443777
   3    0.0097620443097681
   4    0.0021800393211272
   5    -0.034129889545356
   6    -0.0043890507813603
   7    0.0023067510384349
   8    -0.053173327627108
   9    -0.0085866496738483
  10    0.00025702401541446
  11    -0.00021276653262278
  12    0.0016074200220151
  13    6.9768392297154e-05
  14     0.014468457476212
  15     0.013491574754559
  16    -0.031882044301849
  17    -0.034378046641088
  18    -0.011309080056938
  19      0.66716805859714
  20     0.024537079608268
  21    -0.0097992281131912
  22      0.48475232925394
  23      0.01437790443471
  24    8.5021643234365e-05
  25    -0.00015692172067826
  26     0.020310230651917
  27    -0.00039707101392361
  28    -0.0086503141036146
  29    0.0053500701568091
  30    0.0075297061715151
  31    -0.00014413798776161
  32     0.020929082989152
  33    0.0001808376358328
  34    -0.0097693399598899
  35    -0.010519726403696
  36    0.00037043374673826
  37    -0.0012325794430403
  38    -0.00092736803302183
 Sym= A
 Ene=               3
 Spin= Alpha
 Occup=    2.00000
   1     0.013491110499976
   2    -0.031904081921084
   3    -0.034403918873939
   4     0.011317521774178
   5      0.63532904953677
   6      0.20511000878939
   7    0.0098052499771061
   8      0.46043824638684
   9      0.15227227425361
  10    -0.011195295037256
  11    0.0028105900522263
  12    -0.015478663164752
  13    -0.0069098106321135
  14    0.0081824504965428
  15    -0.0010880710184167
  16    0.0021958831094532
  17    0.0097634521192169
  18    -0.0021825601914102
  19    -0.033573007698716
  20    -0.0075476849797617
  21    -0.0023094826744073
  22    -0.052903764319458
  23    -0.010116172415678
  24    -0.00068972636795118
  25    -0.0051480499505952
  26    -0.0013968921843605
  27    -0.00047711164885553
  28    -0.013523230004061
  29    -0.0097683265969303
  30    -0.010519577708678
  31    -0.00037051418703908
  32    -0.0014754353645019
  33    0.00044982967662576
  34    0.0053537781269609
  35    0.0075334903296904
  36    0.00014439987619586
  37      0.01972876685778
  38    0.0069879954790729
 Sym= A
 Ene=               4
 Spin= Alpha
 Occup=    2.00000
   1      0.11496305673781
   2     -0.25741536857127
   3     -0.18547182849954
   4     0.069937586433289
   5     -0.14746625776332
   6      0.40107436504407
   7     0.024449435383161
   8    -0.086955992304399
   9      0.23728528397855
  10    -0.020477594417976
  11    0.0020408910418295
  12     0.013385390891387
  13    0.0047569066887907
  14    -0.00041230916590413
  15    -0.0042389068609231
  16    0.0096513261314507
  17     0.045019282207294
  18    -0.026628634800534
  19     0.005106326910253
  20    -0.0068393797333561
  21    -0.035744491460404
  22     0.010489245121061
  23    -0.015859846260407
  24    0.00028231348783852
  25    -0.010456116007619
  26    0.00093592459736099
  27    -0.0030515523374053
  28    0.0030828953980124
  29    -0.016285138211262
  30    -0.016449647613441
  31    -0.0011133810480637
  32    0.00024759552194312
  33    0.00049501507559466
  34     -0.30437766800258
  35     -0.10106774592417
  36    -0.0047550818923414
  37     0.011733349119027
  38    -0.032337948737245
 Sym= A
 Ene=               5
 Spin= Alpha
 Occup=    2.00000
   1     0.004238907285144
   2    -0.0096513300758169
   3    -0.045019287698094
   4     -0.02662863314276
   5    -0.0024591682195463
   6    -0.0081733809813667
   7    -0.035744491227778
   8    -0.004432274289045
   9    -0.018490912777302
  10    -2.09153250003e-05
  11     0.010879947096547
  12    -0.00010663474449523
  13    0.0032024709928173
  14    -0.00067922929740581
  15     -0.11496320325176
  16      0.25741537866623
  17      0.18547184484707
  18     0.069937589241008
  19    0.0013973911517787
  20      0.42732304150376
  21     0.024449437013901
  22    0.00055552020430149
  23      0.25271592488043
  24     0.024817611501237
  25    -0.0020588280945569
  26    0.00038337240674096
  27    -0.0022511962914286
  28    0.00031058258818441
  29      0.30437766587392
  30      0.10106774312822
  31    -0.0047550818159682
  32    3.4486667891066e-05
  33    -0.034400773844715
  34     0.016285137945253
  35     0.016449648257795
  36    -0.0011133810641726
  37    -0.00040196862791675
  38    0.00038047929665908
 Sym= A
 Ene=               6
 Spin= Alpha
 Occup=    2.00000
   1    0.0092376690639204
   2    -0.025621581775312
   3    -0.028340406920881
   4    -0.050594919238325
   5    -0.0024524063106321
   6      0.02156719468695
   7    -0.054773461002634
   8    -0.0023309228150099
   9     0.027914258726897
  10    -0.0042339125414178
  11    -0.0078984845700253
  12    0.00094981533509035
  13    0.0028514640226906
  14    0.00080845210613645
  15      -0.1863016186653
  16      0.43048968095898
  17      0.51234358319005
  18      0.16766466466846
  19      0.04517221234361
  20     -0.35449286650831
  21      0.11894698476242
  22     0.034054123057717
  23      -0.2396730887127
  24    -0.012020146824923
  25     0.010872773823191
  26    0.00053541853894684
  27    -0.0058722867459641
  28    -0.00093417579401268
  29    -0.073624219239547
  30    -0.075100543658784
  31    0.0051924946329311
  32    0.0014068192801362
  33    -0.0047243248914098
  34    -0.019939398463643
  35    -0.0029666009513796
  36    -0.0016106129231448
  37    0.00050247092955472
  38    -0.00074555076001367
 Sym= A
 Ene=               7
 Spin= Alpha
 Occup=    2.00000
   1     -0.18582735441485
   2      0.43049861843054
   3      0.51233818822383
   4     -0.16766362779317
   5    -0.078763404156706
   6      0.34857377923259
   7     -0.11894769138529
   8    -0.049949568140322
   9      0.23687432672602
  10    -0.0096144230232692
  11     0.010536781456313
  12    0.0081675666812944
  13    -0.0044839049013429
  14    -0.0028404834019876
  15    0.0092375790905565
  16    -0.025621651206545
  17    -0.028338705872146
  18     0.050594695692739
  19    0.0050702239395497
  20    -0.021105688961529
  21     0.054772472546813
  22    0.0073542343979642
  23    -0.027028590215463
  24    -0.0043086331245895
  25    -0.0076988712748628
  26    0.00071278912921576
  27    0.0028083643635023
  28    0.0019410516941544
  29    -0.019940085559436
  30    -0.0029669196930031
  31    0.0016105799745843
  32    0.00021709947480681
  33    0.00087247756903923
  34    -0.073624117578738
  35     -0.07509952625179
  36    -0.0051925027097291
  37    -0.0002926510902274
  38    0.0049204042749583
 Sym= A
 Ene=               8
 Spin= Alpha
 Occup=    2.00000
   1    -0.057247856111787
   2      0.11823202460517
   3     0.066019701111823
   4      0.40549990218426
   5    -0.0034634922640112
   6    0.0055122553716305
   7      0.25612869309592
   8    0.0032413809195037
   9    -0.0055385143021748
  10    -0.020658988415225
  11    -0.011254376970016
  12    0.0017046838438414
  13     0.033421813506379
  14    0.0050821395572559
  15    -0.057247897978983
  16      0.11823201977993
  17     0.066019697727431
  18     -0.40549990299457
  19    -0.0013693830993174
  20    -0.0063644103546683
  21     -0.25612869336383
  22    0.0011515666316629
  23    0.0063131180738516
  24    -0.021368792847151
  25    -0.012313849758745
  26    -0.00054718213647824
  27     0.033012007953928
  28    -0.0009264258577502
  29    -0.024354390559403
  30    -0.050147486788477
  31    -0.0086904115592196
  32    -0.00012198358826719
  33    -0.0011316976397699
  34    -0.024354388605615
  35     -0.05014748561597
  36    0.0086904115127799
  37    -0.00050168850942246
  38    0.0010217279928228
 Sym= A
 Ene=               9
 Spin= Alpha
 Occup=    0.00000
   1    -0.017861848545116
   2      -1.3366357044324
   3       3.2416436312214
   4    0.0062028276813668
   5    -0.039022456697447
   6      0.39544954186015
   7      0.41464038225563
   8      0.50401158380468
   9      -1.7517480549185
  10      0.38210589241567
  11      0.15159557940739
  12     -0.36024911417199
  13      0.24223758143201
  14     -0.15126558885781
  15     0.030242151920011
  16      0.11531790873908
  17     -0.84674233594656
  18     0.083869604043986
  19    -0.0051356103436219
  20     0.023488305468992
  21      0.65482466953978
  22    -0.023065165591891
  23      0.14229502268251
  24     0.078000474794613
  25    -0.088129542241504
  26    -0.0022948507090597
  27     -0.16520546086259
  28     0.014425496735863
  29      0.03981940129097
  30     0.035265988421654
  31    -0.055432059875691
  32    -0.0020516589401956
  33    -0.0030320937596433
  34      -1.1226816148714
  35      -1.2885727291333
  36    -0.089264818405389
  37      0.12962762355642
  38     -0.32389880940939
 Sym= A
 Ene=              10
 Spin= Alpha
 Occup=    0.00000
   1     0.029282003478548
   2      0.11442019083807
   3     -0.83696745294114
   4    -0.079801970077885
   5    -3.3949651054404e-05
   6    -0.024822907264828
   7      -0.6446411959166
   8    5.3497015508652e-05
   9     -0.14944939029593
  10     0.079704357786068
  11    -0.092428923101196
  12     0.012301549598487
  13      -0.1560990249089
  14    0.0029096776835322
  15    -0.018639676755648
  16      -1.3251940394411
  17       3.2278085120461
  18    0.0066143575477043
  19     0.035834979335449
  20     -0.41322242523139
  21     -0.41939592514651
  22    -0.044722070037709
  23       1.8600524315067
  24      0.48290255319816
  25      0.18120510231666
  26     -0.01272941216067
  27      0.26334431989302
  28     0.029750213309001
  29      -1.1260860889096
  30      -1.2995197883688
  31     0.092841443999744
  32    0.0056552771912119
  33      0.34451451766661
  34     0.040474806107099
  35     0.037593466192232
  36     0.055447175597943
  37    -0.00079618706298031
  38    0.0038816513843801
 Sym= A
 Ene=              11
 Spin= Alpha
 Occup=    0.00000
   1    -0.017838057871541
   2    -0.081839114665043
   3      0.82894748572228
   4     0.064992112462939
   5    0.00092864106269581
   6    -0.0052739777126598
   7      0.58757670717809
   8      0.01132302715407
   9    -0.015172078110958
  10    -0.017479706801734
  11    -0.034778507379211
  12    -0.014003231567666
  13     0.068838372020743
  14     0.015958714627208
  15     0.037486703964229
  16     -0.04410133023007
  17     -0.48170165530513
  18     -0.76753312306741
  19    -0.028397194083571
  20     0.041080489086696
  21       1.5445168777576
  22      0.02663135576734
  23    -0.020616316438724
  24     -0.20436669601595
  25     -0.31875804881182
  26     0.045966705830794
  27      0.11829316833547
  28      0.13257060626068
  29      0.16146944933936
  30     -0.21818404220832
  31    -0.086882147727805
  32    -0.015907782710915
  33    -0.061444425226809
  34    -0.060399334460063
  35      0.12655323755043
  36    -0.016621116141588
  37    -0.0018499467290099
  38    0.0039199988131325
 Sym= A
 Ene=              12
 Spin= Alpha
 Occup=    0.00000
   1    9.6210053274235e-05
   2     0.048864987779607
   3      0.22442003352686
   4    -0.038159603063954
   5    -0.028910999458014
   6     0.071234874447785
   7     -0.30425914200778
   8     -0.01818552736333
   9     0.019847622031511
  10     -0.14800019132574
  11     0.051995861854345
  12       0.1232648302808
  13    -0.010319539470619
  14    -0.017197196958979
  15    -0.013853945293405
  16    -0.022519938069982
  17      0.28923611454072
  18    -0.026366919849292
  19    0.0069071811984989
  20    -0.027094572266581
  21     -0.19124563310034
  22     0.043026899197017
  23     -0.15700989405581
  24    -0.0083242652682043
  25     0.030972656622393
  26    -0.0066057234886657
  27     0.016344126524776
  28    -0.012980911939863
  29     0.023114631205215
  30     0.087954881993412
  31    -7.0636821441221e-05
  32    -0.002578194178548
  33    -0.0088918956865034
  34       1.1225036141595
  35      -1.5238722735453
  36      0.42461348717181
  37     0.090224099633976
  38     -0.11468965055819
 Sym= A
 Ene=              13
 Spin= Alpha
 Occup=    0.00000
   1    -0.013841160377979
   2    -0.022582124472419
   3      0.28906953116136
   4      0.02637980827754
   5    -0.0027273526430184
   6     0.027736674777524
   7      0.19133187829005
   8    -0.013026701646105
   9      0.16217738476252
  10    -0.0049791199013009
  11     0.033407834197407
  12    0.0045245691184192
  13     0.018452298135045
  14    0.0017517988373082
  15    -0.00029968073121601
  16     0.050369033381558
  17      0.22952734728188
  18     0.038805139753831
  19    -0.0035192419585033
  20    -0.073459506846428
  21      0.30524696296673
  22    -0.012165002561902
  23    -0.020908412689667
  24     -0.18664589368901
  25     0.055780305936007
  26      -0.0104594805119
  27    -0.034284961196282
  28    -0.001855104776228
  29       1.1168469342281
  30      -1.5259966057523
  31     -0.42398725619213
  32     0.054079243504057
  33      0.14789708149346
  34     0.023242550300248
  35     0.088288070061849
  36    0.0001573302332724
  37    -0.0055102742343039
  38    0.0075597886504751
 Sym= A
 Ene=              14
 Spin= Alpha
 Occup=    0.00000
   1     0.004249962452864
   2    -0.031260613272858
   3    0.00099112328134943
   4    -0.0031180530651254
   5    0.0055502104065204
   6    0.0014098261203262
   7     0.014253129238853
   8     0.003039150889575
   9     0.023547252470342
  10    0.0034631283861811
  11    0.0024518490559173
  12    0.00065755211438099
  13    -0.0028724177690422
  14    0.00037955334500412
  15     0.089152016341529
  16     -0.42333186961669
  17     -0.34236732188997
  18     -0.13358998807986
  19    -0.00091058920491392
  20     -0.60569796904364
  21    -0.056998545406284
  22    -0.00035125802350621
  23     -0.39725031370767
  24    -0.091546766098672
  25    -0.016118002640032
  26    -0.00026800856465789
  27    -0.0023568749574329
  28    -0.00041968249661441
  29      0.89222454465041
  30      0.55021041206181
  31    -0.018041428950174
  32    0.0003043944088334
  33    -0.078326928468161
  34    -0.027063221785389
  35    -0.016463828225089
  36    -0.00041320777682909
  37    -3.4720597809415e-05
  38    -0.00021768824216384
 Sym= A
 Ene=              15
 Spin= Alpha
 Occup=    0.00000
   1     0.035332205120856
   2      -1.1621671598829
   3       1.9276295811401
   4     -0.21120404972076
   5    -0.090988833873458
   6      -0.5540549102345
   7       1.3234215462565
   8     0.060921282918857
   9      0.82643170697689
  10     -0.33670161908087
  11     -0.35266208731499
  12      0.05828479318991
  13      0.25229289703514
  14     0.025144276462658
  15     0.041754130596865
  16      0.15643983916146
  17      -1.1629758245959
  18      0.14951844390745
  19    -0.0020043247181151
  20       0.0296168215039
  21      0.98799799536899
  22    -0.019199742010762
  23    -0.043098128896066
  24      0.12042189348756
  25     0.016661922199464
  26    -0.0016383082518187
  27     -0.23086725062349
  28     0.008193445725254
  29     0.083656639762626
  30     -0.29387790210752
  31    -0.0049586724083099
  32    0.0020732562461989
  33     0.033605079201514
  34       0.2005787610057
  35      0.10447159397151
  36     -0.11673774854333
  37    -0.071832487171831
  38     0.063675856746661
 Sym= A
 Ene=              16
 Spin= Alpha
 Occup=    0.00000
   1    -0.037576315655186
   2     0.024144382021585
   3      0.53067294827273
   4     -0.76170089874474
   5     0.041220653585015
   6     0.062041337974792
   7       1.5163325859733
   8    -0.037804841103918
   9     -0.09016645671803
  10      0.25030285047709
  11      0.32591211421549
  12    -0.062458176189678
  13     -0.14651214684335
  14    0.0069604479847055
  15      0.01651404114387
  16     0.081540693536385
  17     -0.80998139781012
  18       0.0585756954019
  19    0.0013627375557223
  20    -0.0040863555186331
  21      0.57363566063772
  22    0.0019103421623683
  23    -0.0077505525409261
  24     0.009776267192137
  25     0.031241937823584
  26    0.0020542154977364
  27    -0.063918842264073
  28    0.00052345419254241
  29     0.057809011863061
  30     -0.12291527364206
  31    -0.016658795874711
  32    -0.00040516733869641
  33    0.0033668145552435
  34     -0.20294977584655
  35      0.18049956426898
  36    -0.094915679091837
  37     0.044134201248243
  38    -0.067058999398292
 Sym= A
 Ene=              17
 Spin= Alpha
 Occup=    0.00000
   1    -0.013295685798377
   2     0.093963240075691
   3    0.00077822518717145
   4    -0.028857831977794
   5     -0.74105360688843
   6      0.02365007643714
   7    -0.058421511651358
   8       1.0054433753072
   9     -0.17671259861966
  10     0.040794781559786
  11    -0.012758886080219
  12    -0.021935822282423
  13    -0.038411080928866
  14      0.67991954563985
  15    -0.0028874439591153
  16    -0.013632000902295
  17     0.060902054880383
  18    -0.0082166501020193
  19    -0.037490751749917
  20    0.0015015840273811
  21    -0.069080038453256
  22     -0.30877631832425
  23    -0.00018236113282105
  24    -0.0084597161756456
  25    -0.014382815628952
  26    -0.0099194030232705
  27     0.015359067087134
  28      0.16090790850687
  29    -0.0010803575944939
  30     0.040113617644668
  31    0.00042086304701374
  32     0.027893047429685
  33    -0.0068337764623415
  34     -0.13193594920436
  35     -0.16873339442713
  36    -0.052425967715485
  37    -0.054774340900045
  38    -0.015580615872419
 Sym= A
 Ene=              18
 Spin= Alpha
 Occup=    0.00000
   1     0.063022876729262
   2     -0.23901051677684
   3     -0.84149734790295
   4     0.099924446134985
   5     -0.18295922321366
   6      0.49652448681025
   7      0.15606146773682
   8     -0.21920309195457
   9      0.58886049866119
  10     -0.37284039570982
  11     -0.14193129289045
  12      0.25901749716376
  13     0.042997061680802
  14     0.051523094006458
  15    -0.00085004351131467
  16     0.012352961656808
  17    0.0082139589767046
  18    0.0012461570259341
  19    0.0064299085888561
  20    -0.011865281926727
  21     0.023927260583793
  22     0.011475156992378
  23      0.00555136478626
  24     0.022635494453883
  25     0.019784031557819
  26    -0.00069134964472311
  27    -0.014416372437096
  28    -0.0074449617064447
  29    -0.023866313738048
  30    -0.051460212806943
  31     0.011930294355013
  32     0.001564923472178
  33     0.014449159273157
  34      0.79661303479413
  35      0.47299136854954
  36       0.1515259161878
  37     -0.48131462917836
  38       1.3848453251009
 Sym= A
 Ene=              19
 Spin= Alpha
 Occup=    0.00000
   1    0.0009411076096724
   2     -0.01091195866861
   3    -0.0084987833024838
   4    0.0020496543521779
   5    -0.0017092670782652
   6    -0.013596950045685
   7       0.0215105171635
   8    -0.011209816956879
   9    -0.0044180334491498
  10    -0.020685516912926
  11    -0.020391006969819
  12    0.0071850277274669
  13     0.015772503138632
  14    4.3719350550407e-05
  15    -0.062608689045852
  16      0.23839680917599
  17      0.82690867610842
  18      0.10196666576027
  19    0.00019826840464518
  20      0.52787050435907
  21      0.16217617612534
  22    -0.00036189838174079
  23       0.6240404900341
  24      0.45602544269213
  25      0.15905519410151
  26    7.5444426509225e-05
  27    0.0062341078198955
  28    -0.00070386874142148
  29     -0.82020486316079
  30     -0.43326765191057
  31      0.11107048265178
  32    0.0011901509253346
  33       1.4641781046358
  34     0.022023605129601
  35     0.048718973097496
  36     0.012370851958893
  37    -0.0061065074582054
  38     0.012425882633605
 Sym= A
 Ene=              20
 Spin= Alpha
 Occup=    0.00000
   1    0.00097173156493366
   2    0.00057609482447245
   3    -0.018421352787355
   4    -0.00092561518500146
   5    0.0077974096057301
   6    -8.2504655828821e-05
   7    -0.0079145265151286
   8     0.040613506416593
   9    -0.0050551051920828
  10    -0.00037978961992116
  11    -0.0017531634631392
  12    0.0050675944332624
  13    -0.00081255712663482
  14     0.019188428913482
  15    2.7757852411921e-05
  16    -0.0021292434602093
  17    -0.012307089250584
  18    -0.0021291267914042
  19    -0.093285855690013
  20     0.003109462212646
  21    -0.014365446336276
  22     -0.24255333507221
  23    0.0013857945837576
  24    0.0088080907350617
  25    -0.0031124956415384
  26     -0.22625246073248
  27    0.0015752130887157
  28    -0.029469791801007
  29    -0.053553096267917
  30     0.072877391258904
  31     0.021870720754257
  32           1.108789944
  33    -0.0084289187194687
  34    -0.00071259123887209
  35    0.0033540936803434
  36    0.00075674817317561
  37    -0.0010842224370412
  38    0.0011184990633541
 Sym= A
 Ene=              21
 Spin= Alpha
 Occup=    0.00000
   1     0.019351210483691
   2     -0.29819219284991
   3      0.38717224840468
   4      0.20940577530147
   5    0.00039537827715807
   6      -0.3411741137738
   7      -0.2653861403382
   8     0.021133523609627
   9      0.42806884393568
  10    -0.098828160234172
  11       1.0170425337633
  12     0.021050072039194
  13     0.088111763327391
  14      0.02935471520822
  15    0.0051437179566867
  16      0.03798948777174
  17    -0.065170870394505
  18    0.0018833414962034
  19    -8.8108939814934e-06
  20    -0.043090148735295
  21     0.039461842084464
  22    -0.011184263957166
  23     -0.29440195061171
  24    -0.024975345871663
  25      0.16535841081052
  26    -0.00017558297609914
  27     -0.02701621864217
  28    0.0050013986171663
  29      0.11535186925436
  30    -0.011280875744737
  31    -0.029865770118425
  32    0.0011715141310517
  33    -0.0083377142157923
  34    -0.016590957781123
  35    -0.064048465680772
  36      0.20130300771689
  37     0.031812293453679
  38     -0.10012197614676
 Sym= A
 Ene=              22
 Spin= Alpha
 Occup=    0.00000
   1    -0.0012734270478161
   2    0.0031680764570202
   3    0.0068837568535766
   4    -0.00019282015651576
   5    -0.083071504271339
   6    -0.044529454391442
   7    0.0089194940425542
   8     -0.22311054818388
   9    -0.096294274964256
  10      0.13963369716375
  11     0.010381922369088
  12      0.16356061078738
  13     0.072347619608835
  14      0.02760805510567
  15    0.00088323804650786
  16    0.00013451496817703
  17    -0.016397416793378
  18    0.00070910835809131
  19    0.0072201009749881
  20    0.0027801395287949
  21    0.0059436915724059
  22     0.036549588807153
  23     0.017272008909449
  24    -0.0035823690015812
  25    -0.0083931349493854
  26    -0.0034499823620453
  27     -0.00193785727248
  28    -0.017378533150821
  29    -2.4179934935824e-05
  30     0.005115900024821
  31    -0.00099797618125415
  32    -0.00068959018473228
  33    -0.0017958940457688
  34    -0.061158366930586
  35      0.05112190224916
  36     -0.02224700793513
  37       1.0498901843759
  38      0.35785084236044
 Sym= A
 Ene=              23
 Spin= Alpha
 Occup=    0.00000
   1     0.000381664221602
   2    -0.031176023637485
   3    -0.045244725833622
   4    -0.023567923719084
   5    -0.0023756875700127
   6    0.0014579046476657
   7      0.02617195532414
   8    -0.013559785223873
   9      0.10980174550158
  10    0.0042339788021026
  11    -0.024172490683802
  12    0.0080464658786626
  13    -0.0057866041685912
  14    0.0026501869085609
  15    -0.011461762516001
  16     0.012277665017891
  17      0.33035925402498
  18    -0.052929078730608
  19    0.00017411951688693
  20     0.056907997883698
  21      -0.1942239865754
  22    0.00061282248309518
  23      0.12240460330781
  24      0.04250532467559
  25     -0.19831481855312
  26    0.0004790656303266
  27    -0.023636774746698
  28    -0.0004740394229329
  29      0.35067791112924
  30     -0.69873155067037
  31       1.0435924417725
  32    -0.0013580409019918
  33     0.054938942283471
  34     0.040813664742418
  35     0.055351986921926
  36    -0.0098729371291686
  37    -0.0071859361846424
  38     0.014498606525153
 Sym= A
 Ene=              24
 Spin= Alpha
 Occup=    0.00000
   1    -0.0060390579496722
   2     -0.01655661001917
   3      0.16085439340127
   4     0.022289569689209
   5    -0.037279641167049
   6    -0.0029833932720304
   7      0.14387044787806
   8     -0.30941359372074
   9    -0.027456198604056
  10    -0.019355490476096
  11    -0.026496826744581
  12     0.012335604719824
  13     0.034785743962502
  14     -0.15640028257332
  15    -0.0050822182262852
  16      0.12665326825131
  17     -0.18919434965777
  18    -0.048052006354265
  19     -0.71232191401625
  20     -0.13237064211195
  21      0.22060063181707
  22      0.91646164083168
  23      0.23474875763857
  24     0.034445912678859
  25    -0.060949049529655
  26    -0.036699815701604
  27    -0.045521756284209
  28     -0.69933954911921
  29    -0.053562611647269
  30    -0.080242430727086
  31     0.001981112509228
  32    -0.048511437346159
  33    0.0035642091628713
  34      0.02104646369572
  35     0.031965973783648
  36    -0.00018414532586996
  37     0.022794047961731
  38     0.017883954220883
 Sym= A
 Ene=              25
 Spin= Alpha
 Occup=    0.00000
   1    -0.029268814128525
   2     0.054834765299871