[Molden Format]
made by pyscf v[2.0.1]
[Atoms] (AU)
O   1   8     0.00000000000000     0.00000000000000     0.00000000000000
O   2   8     2.75227162082039     0.00000000000000     0.00000000000000
H   3   1     3.06432366844540     0.00000000000000     1.80733789576484
H   4   1    -0.31205204762501     1.77988037206198    -0.31384093202795
[GTO]
1 0
 s    6 1.00
             5484.6717   0.001831099805527
             825.23495   0.013950098518422
             188.04696    0.06844509273075
               52.9645    0.23271427528445
              16.89757    0.47019295006289
             5.7996353    0.35852086192309
 s    3 1.00
             15.539616   -0.11077750382508
             3.5999336   -0.14802630511126
             1.0137618     1.1307670390447
 s    1 1.00
             0.2700058                   1
 p    3 1.00
             15.539616   0.070874299543311
             3.5999336    0.33975279781076
             1.0137618    0.72715859531445
 p    1 1.00
             0.2700058                   1
 d    1 1.00
                   0.8                   1

2 0
 s    6 1.00
             5484.6717   0.001831099805527
             825.23495   0.013950098518422
             188.04696    0.06844509273075
               52.9645    0.23271427528445
              16.89757    0.47019295006289
             5.7996353    0.35852086192309
 s    3 1.00
             15.539616   -0.11077750382508
             3.5999336   -0.14802630511126
             1.0137618     1.1307670390447
 s    1 1.00
             0.2700058                   1
 p    3 1.00
             15.539616   0.070874299543311
             3.5999336    0.33975279781076
             1.0137618    0.72715859531445
 p    1 1.00
             0.2700058                   1
 d    1 1.00
                   0.8                   1

3 0
 s    3 1.00
             18.731137    0.03349459952309
             2.8253937    0.23472694665786
             0.6401217    0.81375731841339
 s    1 1.00
             0.1612778                   1
 p    1 1.00
                   1.1                   1

4 0
 s    3 1.00
             18.731137    0.03349459952309
             2.8253937    0.23472694665786
             0.6401217    0.81375731841339
 s    1 1.00
             0.1612778                   1
 p    1 1.00
                   1.1                   1

[5d]
[7f]
[9g]

[MO]
 Sym= A
 Ene=               0
 Spin= Alpha
 Occup=    2.00000
   1    -2.4984246954933e-05
   2    -0.00037072777180956
   3     0.002459272776866
   4    0.00029994349673069
   5    6.3845564884078e-05
   6    1.8693880429816e-05
   7    0.0018922698611666
   8    -1.4641419971954e-05
   9    6.0279529843518e-05
  10    -0.00012940955968684
  11    7.7905671902319e-05
  12    -2.4436102204239e-05
  13    2.4789833690342e-05
  14    -4.191668743418e-05
  15      0.99589492249182
  16     0.021846705440154
  17    -0.0080638641279716
  18    -0.0011180729225365
  19    -0.00039804308414674
  20    0.0018598369905196
  21    0.0024290487724964
  22    -0.00042390860238969
  23    -0.00084694203832281
  24    0.0007183405786348
  25    0.00015090885945737
  26    -1.4620263299079e-05
  27    -0.0007171920046316
  28    1.4800575408281e-05
  29    -0.0002944555798784
  30    0.0013689203299539
  31    3.1937389297099e-05
  32    -8.7970388777618e-06
  33    0.0011832819980649
  34    -0.00035995536602908
  35    0.00052248722721363
  36    5.6915000607021e-05
  37    7.6673960762885e-06
  38    -4.4396005544783e-06
 Sym= A
 Ene=               1
 Spin= Alpha
 Occup=    2.00000
   1       0.9957266611712
   2     0.022235297325242
   3    -0.0075960572951012
   4    0.00096485606512517
   5    0.0015374785105943
   6    -0.00014233867361926
   7    -0.0025356533635744
   8    -0.0010508702147732
   9    0.00014601206582353
  10    0.00028789158178681
  11    2.1493359314358e-05
  12    -8.3438758917738e-05
  13    -0.00096517297395953
  14    -0.0001586342481201
  15    -1.6719723802576e-05
  16    -0.0003928639344176
  17     0.002436102047048
  18    -0.00025227224120799
  19    4.3923529042749e-05
  20    3.1587929470498e-05
  21    -0.0018417686164881
  22    7.7496197636318e-05
  23    -6.5891060141621e-05
  24    4.1434278691126e-05
  25    4.209241509083e-05
  26    1.2257167948695e-05
  27    0.00012866864096252
  28    -6.3962313331893e-05
  29    -0.00038838038912992
  30     0.000516166180727
  31    -5.6510587306756e-05
  32    -2.3440514304164e-06
  33    9.3696920975553e-06
  34    -0.00036262881617525
  35    0.0013002983767488
  36    -3.670351078643e-05
  37    0.0011618094916955
  38    -0.00019764399574186
 Sym= A
 Ene=               2
 Spin= Alpha
 Occup=    2.00000
   1    0.0075624152991251
   2    -0.018637850291699
   3     -0.04195439569202
   4    -0.030326053717127
   5     0.016692770841084
   6     0.016084260614991
   7    -0.032527935775796
   8     0.023167406144618
   9     0.024711981752386
  10    -0.0024434939876417
  11    -0.0051034802491905
  12    -0.0002836331950366
  13    0.0012317207518544
  14    -0.013093790501104
  15     -0.12668834825917
  16      0.29785325054101
  17       0.3429615694169
  18      0.11268634193712
  19     -0.49290770539565
  20     -0.23730725899396
  21     0.084897498622567
  22     -0.35946613861559
  23     -0.15578934191912
  24    -0.008108115760854
  25     0.006388313492577
  26    -0.017470454693161
  27    -0.0028300812658607
  28    0.0075148046195003
  29    -0.048188925466091
  30    -0.058186728920007
  31    0.0031587285314061
  32    -0.015342257136344
  33    -0.0035071905028727
  34      0.02062981722416
  35     0.028946165063129
  36    -0.0018624485518319
  37    -0.00067565071359161
  38    0.0010208968478904
 Sym= A
 Ene=               3
 Spin= Alpha
 Occup=    2.00000
   1     -0.13834705057418
   2      0.31799130887526
   3      0.38307146940437
   4     -0.12522835598866
   5     -0.18069800549847
   6      0.48711616876327
   7    -0.086991879071447
   8     -0.11472570752567
   9      0.35432764796108
  10    0.0063058334937686
  11    0.0083617829325003
  12     0.017323977500412
  13    0.0040677278595349
  14    -0.0060462450907858
  15    0.0066141171619534
  16    -0.018026540434494
  17    -0.018423417275878
  18     0.038913903487057
  19     0.011494474925914
  20    -0.023730183799119
  21     0.041317799078238
  22     0.016534377936509
  23      -0.0346182220427
  24    -0.0032169662471101
  25    -0.010869777405211
  26    0.00093071087561958
  27    0.0024869732865911
  28    0.0044137190263076
  29    -0.024192080731001
  30    -0.0059294291793995
  31    0.00029425272586953
  32    0.00055744774097945
  33    0.0008941957933377
  34     -0.05571790410385
  35    -0.055982783150493
  36    -0.0039020800648688
  37    -0.001528153876839
  38     0.014071606846313
 Sym= A
 Ene=               4
 Spin= Alpha
 Occup=    2.00000
   1     -0.11374132015927
   2      0.25309634767177
   3      0.18264676904096
   4    -0.069313323617262
   5      0.42365778022338
   6     -0.07281975805291
   7    -0.021457309353139
   8      0.24776184922073
   9    -0.041535913557149
  10    -0.010108199899542
  11    -0.00044120829253423
  12    -0.0057460545562127
  13    -0.023016427782125
  14    0.0013208761344955
  15    0.0039122040078134
  16    -0.010624792678233
  17     -0.03330546699404
  18     0.027745317227621
  19    -0.014996922515983
  20    -0.0016653799804636
  21      0.03737189937447
  22    -0.030255587750574
  23     0.002955116657521
  24    -0.0023674840415263
  25    0.0024367217893143
  26    -0.00075845695434273
  27    0.0019290860317983
  28    -0.0088497869265199
  29    0.0028439009431741
  30    -0.00021301885015679
  31    0.0020048779928951
  32    -0.00088170768949893
  33    3.2767665494969e-05
  34      0.30582325359986
  35      0.10666777494532
  36    0.0043998955229622
  37    -0.033623614676821
  38    0.0064839697840899
 Sym= A
 Ene=               5
 Spin= Alpha
 Occup=    2.00000
   1    0.0039121055817323
   2    -0.010624801902238
   3    -0.033305467238964
   4     -0.02774531956426
   5    -0.0042442854424969
   6    -0.014479974856999
   7    -0.037371901556333
   8    -0.0023436302680462
   9    -0.030309147945316
  10    -0.00031894748680957
  11    0.0091384698319899
  12    -0.00034136718292937
  13    0.0031118090217493
  14    -0.00086294387590528
  15     -0.11374184287238
  16      0.25309631628546
  17      0.18264675538867
  18     0.069313322679954
  19    0.0018543185162586
  20      0.42986649873939
  21      0.02145730346274
  22    0.0021187814279475
  23      0.25121043744397
  24     0.025630634377653
  25    -0.0013774222789434
  26    0.0015305584234789
  27    -0.0023826030429049
  28    0.00020513178788834
  29      0.30582325939427
  30      0.10666778325646
  31    -0.0043998953149882
  32    0.00054679597993544
  33    -0.034238726568635
  34    0.0028438874215847
  35    -0.00021303174940119
  36    -0.0020048772373482
  37    -0.00012083703038085
  38    -0.00087400521640653
 Sym= A
 Ene=               6
 Spin= Alpha
 Occup=    2.00000
   1    0.0066169257767234
   2    -0.018034339286505
   3    -0.018436921434081
   4    -0.038925570306037
   5    -0.021367135379186
   6     0.015446859299517
   7    -0.041328374714558
   8    -0.031212137408022
   9     0.022304330566547
  10    -0.00090264048284211
  11    -0.0062360965318276
  12    0.0014020039233405
  13    0.0038242948448753
  14    0.0099330300371417
  15     -0.13720294192427
  16      0.31813431126752
  17      0.38319638132928
  18      0.12527135975029
  19      0.44814467899905
  20     -0.26263072975793
  21      0.08702818866242
  22      0.32888163530734
  23     -0.17457339525373
  24    -0.011417888465823
  25    0.0074090925576642
  26     0.013708963970685
  27    -0.0061657068562516
  28    -0.0071818710551637
  29    -0.055737279532062
  30    -0.056004002258282
  31    0.0039033631693713
  32     0.013586456208071
  33    -0.0039483928554253
  34    -0.024184474287042
  35    -0.0059174660174336
  36    -0.00029491698452374
  37    0.00097715896056002
  38    0.00039409684976702
 Sym= A
 Ene=               7
 Spin= Alpha
 Occup=    2.00000
   1      0.12676742441128
   2     -0.29797711130354
   3      -0.3431117585727
   4       0.1127356674908
   5      0.31936559742448
   6      0.44402052820016
   7     0.084931667781422
   8      0.21588825682823
   9      0.32681371740923
  10     -0.01124153950065
  11    0.0062880409945627
  12     0.013524486194774
  13    -0.0083416166527141
  14    0.0075985618289498
  15    -0.0075649532225281
  16     0.018645207956926
  17      0.04196195794122
  18    -0.030341499815186
  19    -0.018743343157875
  20    -0.013637009309378
  21    -0.032544275509964
  22    -0.028366204988482
  23    -0.018510771279923
  24    -0.0001594609756628
  25    -0.012004402445093
  26    -0.00024696771795596
  27    -0.002736203841043
  28    -0.0073013929207324
  29    -0.020620380742492
  30     -0.02894389966833
  31    -0.0018625688821316
  32    -0.00088828888429219
  33    0.00084230750042454
  34     0.048210875154176
  35     0.058208725411718
  36    0.0031602635163609
  37    0.0061186755078049
  38     0.014494643163933
 Sym= A
 Ene=               8
 Spin= Alpha
 Occup=    2.00000
   1    -0.057533797360605
   2      0.11845909747331
   3      0.06894350517477
   4      0.40536666031812
   5    -0.0086492840426731
   6    -0.0024502337574557
   7      0.25512097016681
   8     0.011765040646642
   9    0.0010769237367898
  10    -0.016885143229355
  11    5.9722408119479e-05
  12    0.00083730496920091
  13     0.035536349578454
  14     0.014412722168956
  15    -0.057534388264359
  16      0.11845896461638
  17     0.068943364245791
  18     -0.40536669132955
  19    -0.0039144472474983
  20    -0.0080922940676286
  21     -0.25512099632112
  22    0.0031039101436546
  23     0.011399381866461
  24     -0.02241654751739
  25    -0.014183380449339
  26    -0.00028890005386623
  27     0.032342791730741
  28    -0.0025615616355289
  29    -0.027535824368541
  30    -0.052097337490593
  31    -0.0088745229434111
  32    -0.00054412648664203
  33    -0.0011800151358096
  34    -0.027535867223649
  35    -0.052097384706899
  36    0.0088745229823305
  37    -0.0012565765494814
  38    -0.00033096784323469
 Sym= A
 Ene=               9
 Spin= Alpha
 Occup=    0.00000
   1    -0.0030443586560589
   2      -1.5077521797604
   3       3.3414356653853
   4    -0.048200983853806
   5    -0.078098049404776
   6      0.33899541171795
   7      0.88066914761027
   8       1.0217042975192
   9      -0.5813995686093
  10     -0.47231081199035
  11    -0.0063326713111519
  12     -0.15818687681842
  13       0.2433553812351
  14     -0.32537298130095
  15     0.047699162321378
  16       0.1471853899087
  17      -1.1938445678362
  18      0.16296357058245
  19    -0.0097737659430359
  20     0.018704030181097
  21      0.98417415040511
  22    -0.041394195500022
  23      0.11755213741066
  24      0.14495741987213
  25    -0.027577929075673
  26    -6.4401300006107e-06
  27     -0.27318466136479
  28     0.025892742882005
  29     0.028682974106175
  30    -0.088421629792751
  31    -0.041048303850625
  32    -0.0020910484784806
  33     0.027569856958025
  34     -0.75462173207674
  35     -0.94937881961155
  36    -0.036326250659614
  37      0.22689589257741
  38    0.0030706341731922
 Sym= A
 Ene=              10
 Spin= Alpha
 Occup=    0.00000
   1     0.025304073372964
   2      0.11690961017959
   3     -0.70534276081154
   4    -0.067202706031054
   5    0.0081034518511649
   6    -0.016940767378423
   7     -0.61354689160814
   8     0.050403270607029
   9      -0.0855882714219
  10     0.096831800961362
  11    -0.051453939850627
  12    0.0030156430788234
  13     -0.14578252437287
  14     0.011273543381896
  15    0.0027975688591001
  16      -1.5052111949666
  17       3.2927318172315
  18     -0.15744417836072
  19      0.17627943179715
  20     -0.12169776294817
  21     -0.19357456757832
  22     -0.21654014994561
  23       1.4202432394929
  24      0.48092966232713
  25      0.32692090043938
  26    -0.012942756981419
  27      0.25894067045351
  28     0.038560733541699
  29      -1.0358910072871
  30      -1.2317325021889
  31     0.044045400851146
  32     0.020129857429477
  33      0.36384858503708
  34     0.028044706448483
  35    -0.041806947822469
  36      0.03169204715188
  37     0.013806609454084
  38    -0.0029738690012995
 Sym= A
 Ene=              11
 Spin= Alpha
 Occup=    0.00000
   1    -0.021279440442749
   2      0.32725550440737
   3     -0.48933785624504
   4     -0.57943286193653
   5    0.0022516114326303
   6      0.29508488875207
   7       1.5816435890943
   8     -0.86614011793769
   9     -0.21502077583131
  10    -0.021253616693487
  11    -0.098760699550207
  12      0.10739354691771
  13      0.98449331741947
  14      0.11955058907511
  15     0.041351616006702
  16     0.045208298695249
  17     -0.94676608100799
  18      0.18501893365409
  19     0.011417672096784
  20     0.016883548729486
  21      0.69700484379505
  22        0.060136165907
  23      0.11947261129524
  24      0.12416524558634
  25    -0.021330829410414
  26    0.0016769613876061
  27     -0.20519461621603
  28    -0.041759736762609
  29    -0.0073391690832394
  30    -0.099821389422202
  31     -0.01214640861737
  32    -0.0013732091897353
  33     0.025697511497509
  34      0.70430222378295
  35       0.8212544799852
  36    -0.016123803346403
  37     -0.32653219123395
  38     0.099440921468737
 Sym= A
 Ene=              12
 Spin= Alpha
 Occup=    0.00000
   1    -0.012234787821693
   2    -0.026429414052598
   3      0.26637903870347
   4     0.027616695821818
   5    -0.014346186457197
   6     0.022513577985042
   7      0.19843764350337
   8    -0.047555543177685
   9      0.12905495203877
  10    0.0036470572404783
  11     0.034842819471858
  12    0.0042150790489256
  13      0.02404989174583
  14    0.0054091129311363
  15    -0.00038731279304217
  16     0.054261227397425
  17      0.22246406324681
  18     0.038589401275725
  19    -0.012380403063822
  20    -0.066361712791888
  21      0.31076333424904
  22    -0.047248887239698
  23    -0.014824758152116
  24     -0.17786659139955
  25     0.056389709405125
  26    -0.039288281279057
  27    -0.033184126719172
  28    -0.0057588026068174
  29         1.09583811184
  30      -1.5104805070201
  31     -0.42094202728431
  32      0.19471941157735
  33       0.1618408755961
  34     0.006630303070342
  35      0.14167285569891
  36    0.0040131500710224
  37    -0.016527511144403
  38    -0.0018714462100111
 Sym= A
 Ene=              13
 Spin= Alpha
 Occup=    0.00000
   1    -0.0006414204007009
   2     0.055196231920836
   3      0.22574732034834
   4    -0.038955614253037
   5    -0.065411833549753
   6    -0.0012962146767651
   7     -0.31118714459681
   8     -0.02041076047174
   9    -0.045053467899688
  10      0.11966832432633
  11     0.015633307788871
  12     0.020280405852583
  13      0.13751083586311
  14    -0.055035856156586
  15    -0.012228533591059
  16    -0.026490015559691
  17      0.26629862426028
  18    -0.027598793924257
  19      0.01959867703341
  20    -0.018002045493608
  21     -0.19843371168952
  22       0.1186781046058
  23    -0.069141150691089
  24    -0.023145982283933
  25    0.00065277603136495
  26    -0.0012124755339545
  27     0.008654642459951
  28    -0.035156997545501
  29    0.0066226502538943
  30      0.14176055538567
  31    -0.0040250821944907
  32    -0.0047260683552469
  33    -0.015973888967809
  34       1.0920913721507
  35      -1.5116414469169
  36      0.41988546532386
  37      0.19942536948081
  38      0.16562350426319
 Sym= A
 Ene=              14
 Spin= Alpha
 Occup=    0.00000
   1     0.088630362061378
   2     -0.42035186356666
   3     -0.34513668586941
   4      0.13543012938788
   5     -0.59991080428724
   6      0.10489324716802
   7     0.054161113404616
   8     -0.39074418474914
   9     0.066151713093505
  10     0.043818395661378
  11    -0.0025195565600138
  12     0.025987457089205
  13     0.075541864756877
  14     0.016956996425709
  15    0.0050986650197131
  16    -0.033501068577124
  17    -0.0056050753583917
  18    0.00078976210244124
  19     0.014565081063867
  20     0.010764165542412
  21    -0.018203943681805
  22     0.029669581207724
  23    -0.0010717269825763
  24    -0.00079628711846581
  25    -0.00051880754802514
  26    -0.0001450231073072
  27    -0.0050328664611492
  28    -0.0032803622824104
  29    -0.022544550173934
  30    -0.005031659323489
  31    -0.00055447676392541
  32    -0.00036469692066409
  33    -0.0014196845553465
  34       0.8877238956675
  35      0.55207886697047
  36     0.017302742945146
  37    -0.076960735199353
  38     0.015471782526212
 Sym= A
 Ene=              15
 Spin= Alpha
 Occup=    0.00000
   1    -0.0096816946461385
   2    -0.040595079786214
   3      0.22591076477681
   4     0.023666117491364
   5    -0.011529788290302
   6     -0.03940383222217
   7      0.20699260088743
   8     -0.09971635286608
   9     -0.28921763324155
  10    -0.015159478996536
  11     -0.15679973263413
  12    -0.0075295047304159
  13     0.044023810066699
  14    -0.019838570695468
  15     -0.03680416548148
  16      0.25398950389401
  17     0.023905183545722
  18     0.046857385410523
  19     -0.28437178125048
  20      -0.7396167293298
  21      0.23638465063867
  22      0.35022722648514
  23       1.4027923314196
  24       0.1382666210744
  25     -0.44861510803115
  26      0.02216061456541
  27    -0.063739094417026
  28    0.00028015609408487
  29     -0.39502395937128
  30     -0.49288343856521
  31     0.097801140023813
  32     -0.03465197901543
  33     0.018035572783461
  34    -0.0036738142104403
  35     0.073176024272159
  36    -0.013278259939932
  37    -0.0082500008510678
  38     0.026271440929772
 Sym= A
 Ene=              16
 Spin= Alpha
 Occup=    0.00000
   1    -0.020933496858682
   2     -0.10170098897181
   3      0.92421478563408
   4     0.069269713744286
   5     0.001734611019739
   6    0.0024383458057987
   7      0.67733807130975
   8     0.012667290872319
   9     0.035879660340834
  10    -0.061954283642313
  11     0.014139639636547
  12    -0.0081216852385627
  13     0.068048351178002
  14     0.043480191449572
  15     0.028485606912895
  16      0.27333337267965
  17      -1.0260639708359
  18     -0.70677214692787
  19     -0.16900389930112
  20     0.087498362439178
  21       1.5450059803466
  22      0.18072140327979
  23     -0.24563919774012
  24     -0.17490685634576
  25     -0.06023226517447
  26      0.05923918657519
  27         0.18216481453
  28       0.3998300515097
  29      0.24129368624752
  30     -0.02120006222447
  31     -0.13778965848095
  32    -0.040778388127902
  33    -0.056684748982163
  34    -0.065771039896861
  35      0.13480330817514
  36    -0.024140632346217
  37    -0.0086514045066617
  38    0.0002154369582507
 Sym= A
 Ene=              17
 Spin= Alpha
 Occup=    0.00000
   1    -0.00038810590547501
   2    -0.019748088844925
   3     0.017116109210272
   4    -0.0031092072987235
   5    -0.00078888685663694
   6    -0.018823003536494
   7     0.023180180351304
   8    -0.013770728567414
   9    -0.022697026028306
  10    -0.0057224396454282
  11    -0.023037322047041
  12    0.0017561436883946
  13     0.015649088809392
  14    0.0012858501796834
  15    -0.063511174285739
  16      0.23726034715644
  17       0.8612083552032
  18     0.092573936166586
  19    0.00095002808283082
  20        0.531442327132
  21      0.12814728206926
  22    0.00057398451433941
  23      0.63331927630304
  24       0.4584723252742
  25       0.1235313119391
  26    0.0018436931285142
  27    0.0027479575002289
  28    -5.7592678104162e-05
  29     -0.76367085496834
  30      -0.5198944907359
  31      0.27553237683007
  32    -0.0087718103836935
  33       1.4523604975833
  34    -0.0002552511301415
  35      0.03126618279383
  36    -0.00096254158878369
  37    -0.0061432080805052
  38    -0.0022193631132323
 Sym= A
 Ene=              18
 Spin= Alpha
 Occup=    0.00000
   1     0.034554383766548
   2      0.12600672617825
   3     -0.98495818548298
   4     -0.13028081011494
   5     0.018259842685505
   6    -0.0097453207677508
   7     -0.82106694832064
   8     -0.10069251845253
   9     0.022022655102749
  10      0.12375386086964
  11    -0.0089642076419771
  12    0.0043197404843168
  13     -0.17689772998212
  14    -0.036815083879319
  15     0.011910944615032
  16     -0.80759010497365
  17       1.5339900682803
  18      0.27399211831878
  19     -0.69897665914822
  20      0.23750837126589
  21      -1.1975774857263
  22      0.86560607285402
  23     -0.32141038038429
  24     -0.19151480266207
  25     -0.23531834012931
  26     0.075406806478428
  27      0.27367894735981
  28      0.20043393745564
  29     0.041273606494865
  30     0.046707616552102
  31       0.1064962701184
  32    -0.096665725056322
  33    -0.043180127140992
  34     0.092546514566924
  35      -0.2572393411161
  36    -0.00067523319942536
  37     0.024261850044708
  38    -0.0039174205545816
 Sym= A
 Ene=              19
 Spin= Alpha
 Occup=    0.00000
   1    -0.063453680086785
   2      0.23749611075574
   3      0.85486368924936
   4     -0.09404036254063
   5      0.52425605372965
   6    -0.092244478003227
   7     -0.13173460223133
   8      0.62279666795149
   9     -0.11107589375155
  10     -0.21222792688523
  11     0.022630586894263
  12     -0.13678090730975
  13     -0.38461431990083
  14     -0.12669953285756
  15    -0.00031119828948376
  16    -0.018745789418807
  17     0.016154786368735
  18    0.0026805635331906
  19    -0.018736798260074
  20    0.0028034336362279
  21    -0.021531318710368
  22    -0.027279074983312
  23    -0.0081040597818668
  24    -0.010878765680911
  25    -0.0052595596643048
  26    0.00076303862923114
  27     0.012990637824101
  28     0.022298068212202
  29    -0.00039298196909055
  30     0.029349363151495
  31    0.00068716286462419
  32    -0.0030643635644237
  33    -0.0054423077724339
  34      -0.7814983252379
  35     -0.49569341665499
  36     -0.25257640934322
  37       1.4332151166342
  38     -0.25298584617775
 Sym= A
 Ene=              20
 Spin= Alpha
 Occup=    0.00000
   1     0.012156690755505
   2     -0.81463802450803
   3       1.5459518142441
   4     -0.27719579573717
   5      0.11859146196849
   6     -0.72778282088397
   7       1.2047652026198
   8     -0.17106020090208
   9      0.90602793676376
  10     -0.16205666848798
  11     -0.23104839660869
  12     0.079513654859099
  13      0.27964364718949
  14      0.19896092017757
  15     0.034501571970148
  16      0.12709304211484
  17     -0.98920000048367
  18      0.12962910525885
  19    -0.0064341633646814
  20     0.019520752482119
  21      0.82435766308559
  22    0.0050844886396013
  23     -0.10364716777022
  24     0.090376563946796
  25     0.035492772870823
  26    -0.0022978601950828
  27      -0.1952141402518
  28     0.015181271400018
  29     0.093396838388208
  30     -0.25858080041229
  31    0.00038488022282497
  32    0.00026657965717635
  33     0.024546412134517
  34     0.038348720080603
  35     0.046159213387789
  36     -0.10814990781965
  37    -0.057207076006663
  38    -0.087451468725987
 Sym= A
 Ene=              21
 Spin= Alpha
 Occup=    0.00000
   1     0.030045277759561
   2     -0.42301878662832
   3      0.41769926716182
   4      0.11199505409348
   5      0.19598547780518
   6      0.27888622961771
   7      0.06886347547022
   8     -0.32903119742964
   9      -0.3156905547626
  10      0.12016335496035
  11     0.070662944326976
  12     0.068031573568992
  13     0.090458069969627
  14       0.9667197994962
  15    0.0058833423768383
  16     0.029804959857772
  17     -0.15338026433647
  18      0.01369777045092
  19    -0.035477033899423
  20    0.0039809503565252
  21      0.13953903745126
  22     -0.07792362199977
  23     0.064240568712721
  24     0.017046260571846
  25    -0.0088810226490661
  26    -0.0054661120014788
  27    -0.032947523601479
  28     0.099843968833081
  29    -0.0070971087107015
  30    -0.018407430009254
  31    -0.010936283875035
  32     0.010244784314328
  33    0.0068372592830092
  34        0.215056226456
  35     0.022670892074293
  36     -0.15669235017495
  37     -0.12363506855484
  38     0.058940624018453
 Sym= A
 Ene=              22
 Spin= Alpha
 Occup=    0.00000
   1    -0.0059732336746979
   2    -0.029356276529928
   3      0.15181076267703
   4     0.014315168154542
   5    0.0013827542921301
   6     0.035452545990203
   7      0.13980216672749
   8    -0.054870431392666
   9      0.08586850933474
  10    -0.021506041850086
  11     0.098905111117011
  12    0.0047493193167428
  13     0.031750239068615
  14    0.0058050546595343
  15    -0.030544580682159
  16      0.42276593043911
  17     -0.40863609987782
  18      0.11528224946309
  19     -0.31023441330303
  20     -0.15148166230397
  21     0.066984029119934
  22      0.37111261576562
  23      0.28703819075223
  24      0.15699431649108
  25      0.94216402685803
  26    -0.013451370433538
  27     0.061694854605517
  28       0.2174775168222
  29      -0.2239826665303
  30    -0.030587867131399
  31     -0.15587120008302
  32    -0.036068256897788
  33       0.1346270435035
  34    0.0090820204423602
  35      0.01931236863744
  36    -0.010417742778781
  37    -0.008891815741072
  38    -0.0086349286731697
 Sym= A
 Ene=              23
 Spin= Alpha
 Occup=    0.00000
   1    0.00013245722851987
   2    -0.0070579750658557
   3    -0.054027636031952
   4    0.0036124086666358
   5    -0.0033813120469202
   6    -0.092836418101589
   7     0.042009903053436
   8    -0.040335758377377
   9     -0.23523499636366
  10      0.04454092032851
  11     0.028885962149727
  12     -0.22038593444565
  13     0.013946150467084
  14    0.0026217478070363
  15    0.0027169746180072
  16     0.006068609897878
  17    -0.054550868424576
  18    0.0029416787056606
  19    -0.0021004184369231
  20    0.0091221107472642
  21     0.035364876423453
  22    -0.018221562112709
  23     0.050181104057876
  24    0.0023117827786955
  25    -0.017803225490838
  26     0.005969314710774
  27    -0.0008510933659474
  28    0.0022451217706007
  29    -0.0029184098928956
  30    -0.013194409937796
  31    -0.0051954283806869
  32    -0.00024249330054322
  33    0.00032869796613839
  34      -0.2248106876538
  35      0.30633502880222
  36    -0.017353489033849
  37      0.16828179343851
  38       1.0778352644606
 Sym= A
 Ene=              24
 Spin= Alpha
 Occup=    0.00000
   1    0.0026794763521645
   2    0.0058129287441896
   3    -0.053637174727855
   4    -0.0028872515474804
   5    0.0085742954385735
   6    -0.0037773197540941
   7    -0.034595232724093
   8     0.045994422452125
   9    -0.026559700500037
  10    -0.0021582407412497
  11    -0.0054296400239884
  12     0.005098303707998
  13    -0.0031760535935631
  14     0.017169627366297
  15    -0.0004980461605301
  16    -0.0045450839725928
  17    -0.044944548783246
  18    -0.0025607359095327
  19    -0.092041309607903
  20     0.017889884859074
  21    -0.039796670173389
  22     -0.23879717575766
  23      0.00735923461006
  24     0.037379203221815
  25    0.0039016010222873
  26     -0.22277020759695
  27    0.0074062081987641
  28    -0.028919971701152
  29     -0.22954931971189
  30      0.29725390975567
  31     0.018531144510341
  32        1.091167366475
  33    -0.0065101795600177
  34    -0.0029038758961589
  35    -0.012511392596679
  36    0.0052010949678215
  37    0.00017740926710651
  38    -0.00032074518524789
 Sym= A
 Ene=              25
 Spin= Alpha
 Occup=    0.00000
   1     0.047737993381508
   2     0.055401114189832
   3     -0.94510288615703
   4     -0.20202059911592