[Molden Format]
made by pyscf v[2.0.1]
[Atoms] (AU)
O   1   8     0.00000000000000     0.00000000000000     0.00000000000000
O   2   8     2.75227162082039     0.00000000000000     0.00000000000000
H   3   1     3.06432366844540     0.00000000000000     1.80733789576484
H   4   1    -0.31205204762501     1.56520053095466     0.90366894788242
[GTO]
1 0
 s    6 1.00
             5484.6717   0.001831099805527
             825.23495   0.013950098518422
             188.04696    0.06844509273075
               52.9645    0.23271427528445
              16.89757    0.47019295006289
             5.7996353    0.35852086192309
 s    3 1.00
             15.539616   -0.11077750382508
             3.5999336   -0.14802630511126
             1.0137618     1.1307670390447
 s    1 1.00
             0.2700058                   1
 p    3 1.00
             15.539616   0.070874299543311
             3.5999336    0.33975279781076
             1.0137618    0.72715859531445
 p    1 1.00
             0.2700058                   1
 d    1 1.00
                   0.8                   1

2 0
 s    6 1.00
             5484.6717   0.001831099805527
             825.23495   0.013950098518422
             188.04696    0.06844509273075
               52.9645    0.23271427528445
              16.89757    0.47019295006289
             5.7996353    0.35852086192309
 s    3 1.00
             15.539616   -0.11077750382508
             3.5999336   -0.14802630511126
             1.0137618     1.1307670390447
 s    1 1.00
             0.2700058                   1
 p    3 1.00
             15.539616   0.070874299543311
             3.5999336    0.33975279781076
             1.0137618    0.72715859531445
 p    1 1.00
             0.2700058                   1
 d    1 1.00
                   0.8                   1

3 0
 s    3 1.00
             18.731137    0.03349459952309
             2.8253937    0.23472694665786
             0.6401217    0.81375731841339
 s    1 1.00
             0.1612778                   1
 p    1 1.00
                   1.1                   1

4 0
 s    3 1.00
             18.731137    0.03349459952309
             2.8253937    0.23472694665786
             0.6401217    0.81375731841339
 s    1 1.00
             0.1612778                   1
 p    1 1.00
                   1.1                   1

[5d]
[7f]
[9g]

[MO]
 Sym= A
 Ene=               0
 Spin= Alpha
 Occup=    2.00000
   1    -2.0491158815884e-05
   2    -0.00043480682925175
   3    0.0025761454223257
   4    0.00027541822389013
   5    5.4114896221122e-05
   6    4.7227855407901e-05
   7    0.0018373469523133
   8    8.2057281976576e-05
   9    8.6813864325816e-05
  10    -0.00010106816042681
  11    4.7569753212574e-05
  12    8.5840104324802e-05
  13    2.7260120269113e-05
  14    -4.7140789765042e-05
  15       0.9957847822809
  16     0.022086146099109
  17    -0.0077234637563162
  18    -0.0010155760670664
  19    -0.00063858520391193
  20    0.0016950932835937
  21    0.0024916223285411
  22    -0.00056442503689202
  23    -0.0010276847966928
  24    0.00070615697080977
  25    0.00016177747836531
  26    -3.1781333218539e-05
  27    -0.00072571700013614
  28    2.2375791147668e-05
  29    -0.00033025015510739
  30    0.0013024614608539
  31    4.5153267824358e-05
  32    -1.9453830263594e-05
  33    0.0011888347661982
  34    -0.00037238998226818
  35    0.00037748255097048
  36    4.6000961674428e-05
  37    2.9513768287518e-05
  38    6.9992506986117e-06
 Sym= A
 Ene=               1
 Spin= Alpha
 Occup=    2.00000
   1      0.99578715552212
   2     0.022081023854557
   3    -0.0077315733848954
   4    0.0010172726031851
   5    0.0018578998301952
   6    0.0001786976436417
   7    -0.0024911930726533
   8    -0.00055710911940521
   9    -0.0010873799584844
  10    0.00035540634728747
  11    -0.00010210015714364
  12    0.00019753838377203
  13    -0.00092807772181959
  14    -0.00012797493539037
  15    -2.0085594743758e-05
  16    -0.00043504067782543
  17    0.0025742547122335
  18    -0.00027598928675458
  19    1.0375274764488e-05
  20    7.5166623828253e-05
  21    -0.0018381604547601
  22    2.8548115573626e-05
  23    0.00012167615283516
  24    5.976894739136e-05
  25    1.989543088188e-05
  26    -2.1222371899489e-05
  27    0.00011973435853071
  28    -6.6282861863999e-05
  29    -0.00036691688732064
  30    0.00038074196407417
  31    -4.5682080986048e-05
  32    -8.8544459504537e-06
  33    2.8948285330851e-05
  34    -0.00032939182266921
  35    0.0013029723755726
  36    -4.5084547067636e-05
  37    0.0010415074958394
  38    0.00057395961627189
 Sym= A
 Ene=               2
 Spin= Alpha
 Occup=    2.00000
   1    0.0044509653019311
   2    -0.011258384291477
   3    -0.014253271353549
   4    -0.026965197176997
   5    -0.028279841033062
   6     0.012019052244052
   7       -0.028048236103
   8    -0.044897276986342
   9     0.017182302524053
  10    -0.00048512176219143
  11    -0.0038903072332223
  12    -0.00095319288707852
  13    0.0030565495242351
  14     0.012818677070671
  15    -0.093232450529866
  16      0.21581185971584
  17      0.26432784701373
  18     0.085568119352959
  19      0.57851845761963
  20     -0.17581032222902
  21      0.05914634805232
  22       0.4210840341467
  23     -0.11231541444454
  24    -0.0081692834189674
  25    0.0041258773995539
  26     0.020019372374002
  27    -0.0047088290379374
  28    -0.0085833244564445
  29    -0.039393489229626
  30    -0.041826599401649
  31     0.002879529558492
  32     0.017879857944584
  33    -0.0026796674642677
  34    -0.019137049647198
  35    -0.0020527049654338
  36    0.00037795697998412
  37    -0.00036414270584076
  38    0.0010733714581992
 Sym= A
 Ene=               3
 Spin= Alpha
 Occup=    2.00000
   1     -0.16360447035899
   2      0.38251385708191
   3      0.44356408156814
   4     -0.14542230102165
   5    -0.096393607411388
   6     -0.44009078897046
   7     -0.10839688933971
   8    -0.052029281277723
   9     -0.30995616923129
  10    -0.0045647105105873
  11    -0.0091499697667904
  12    -0.017138206052278
  13    -0.00059052796698821
  14    -0.0051521657548459
  15    0.0094176081249827
  16    -0.023643209917253
  17     -0.04918419112145
  18     0.039847810832431
  19    0.0074422131776435
  20     0.014395966019593
  21     0.042693625814395
  22     0.010087156267807
  23     0.018776155383439
  24    -0.00069657800071148
  25     0.012592023024194
  26    -0.00070262566278489
  27    0.0030347212108542
  28    0.0026726941885273
  29     0.021008864715389
  30     0.030395577934815
  31    0.0025878138354388
  32     0.000350569154593
  33    -0.00076924321060911
  34    -0.061561865965622
  35    -0.075735712037783
  36    -0.0046626825467094
  37     0.001092851737645
  38    -0.011805620448967
 Sym= A
 Ene=               4
 Spin= Alpha
 Occup=    2.00000
   1     -0.11250206926388
   2      0.24918648431255
   3      0.17841177805183
   4    -0.068813776533903
   5      0.37286438380435
   6      0.21337644422209
   7      -0.0187052796347
   8      0.21604886356544
   9      0.12584998108416
  10    -0.0008329470559278
  11    0.0011479415355732
  12     0.019768942177248
  13    -0.017960665815961
  14    0.0012202705885034
  15    0.0038637416423699
  16     -0.01133879805051
  17    -0.026796795129656
  18     0.028868740254218
  19    -0.013665552730181
  20     -0.01076180458086
  21     0.038357341819186
  22    -0.026737248687855
  23    -0.011834491950034
  24    -0.0024791415507619
  25    -0.0043898051683787
  26    0.00077068969935081
  27    0.0021275866399131
  28    -0.007910903328152
  29    -0.0081635010011085
  30    -0.0098594497323541
  31    0.0016541237666369
  32    -0.00056548547351867
  33    0.00047018890082402
  34      0.30804838006954
  35       0.1131814245426
  36    0.0052536559166395
  37    -0.029812771795979
  38    -0.016174856045906
 Sym= A
 Ene=               5
 Spin= Alpha
 Occup=    2.00000
   1    0.0038636751700594
   2    -0.011338716573024
   3    -0.026796731533861
   4    -0.028868865063368
   5    -0.0024872729798935
   6    -0.017215705488923
   7    -0.038357451291379
   8    0.0031196617220558
   9    -0.029072436122714
  10    -0.00049399950201381
  11    0.0090459312221273
  12    -0.00055274359342015
  13    0.0032737093527117
  14    -0.00015380510777241
  15     -0.11250461132737
  16      0.24918687565904
  17      0.17841229398163
  18     0.068813995962377
  19    -0.0016440605673025
  20      0.42959789002844
  21     0.018705440757907
  22    0.00096391436343367
  23      0.25002855748669
  24     0.026596606820598
  25    -0.0016307401561159
  26    0.0014825179211498
  27    -0.0021242015512539
  28    -0.00038398868101632
  29       0.3080483192917
  30      0.11318134280135
  31    -0.0052536493132065
  32    0.00089850901884538
  33    -0.033906054820226
  34    -0.008163479290247
  35    -0.009859422227729
  36    -0.0016541319662987
  37    0.00068993812122911
  38    -0.00025463255906167
 Sym= A
 Ene=               6
 Spin= Alpha
 Occup=    2.00000
   1    -0.092988582762686
   2      0.21566910366137
   3      0.26415649433226
   4    -0.085512979230615
   5     -0.44147870613488
   6      0.41327466177853
   7    -0.059105794697567
   8     -0.30779053796377
   9       0.3086299767381
  10     0.019096007744874
  11    0.0053738964865103
  12    0.0018503113779134
  13     0.011031748138427
  14    -0.0078628514030682
  15    0.0044478224089703
  16    -0.011249471170461
  17    -0.014233910640705
  18     0.026950647969201
  19     0.024546044590953
  20    -0.018487180728172
  21     0.028032026442049
  22      0.03732522808836
  23    -0.030298319287413
  24    -0.0026392311286816
  25    -0.0091609223995858
  26    0.00048335431969433
  27    0.0018114931220001
  28     0.009777421327414
  29    -0.019145152496249
  30    -0.0020642032385497
  31    -0.00037893762172435
  32     0.001111508490711
  33    0.00022163192831982
  34    -0.039370318454638
  35    -0.041797438485281
  36    -0.0028777778252892
  37    -0.011260782975196
  38     0.014149218960317
 Sym= A
 Ene=               7
 Spin= Alpha
 Occup=    2.00000
   1    0.0094159971258618
   2    -0.023638932868624
   3    -0.049178521466939
   4    -0.039837321636653
   5    0.0087572160326223
   6     0.013638606225672
   7    -0.042682589266334
   8     0.011234366075626
   9      0.01811732108951
  10    -0.0024108365934371
  11    -0.0086091555940013
  12    0.0004407076461615
  13    0.0020437223047636
  14    -0.009573566198442
  15     -0.16347774863447
  16      0.38243293351203
  17      0.44346201102037
  18      0.14538928483415
  19     -0.33315432845615
  20     -0.30345814680526
  21      0.10837441973806
  22     -0.24257639612854
  23     -0.19999438450724
  24    -0.011896372912964
  25    0.0090353277366893
  26    -0.012256004066609
  27    -0.0048235301416956
  28    0.0053513035537716
  29    -0.061547417739578
  30    -0.075719831930607
  31    0.0046615939635369
  32    -0.010777235556422
  33    -0.0049551767705867
  34     0.021016270318446
  35     0.030396463159788
  36    -0.0025879465057592
  37    -0.00084133468202906
  38    -8.1435546904675e-05
 Sym= A
 Ene=               8
 Spin= Alpha
 Occup=    2.00000
   1      0.05775054496831
   2     -0.11927514547889
   3    -0.069298640325869
   4      -0.4052544262806
   5    0.0063067272786763
   6    0.0075548238309307
   7     -0.25433215424225
   8      -0.0112238383797
   9    -0.0093643441765804
  10     0.017948002948602
  11    -0.0097284242676846
  12     0.002124763844469
  13     -0.03504700480348
  14    -0.012489676476839
  15     0.057752161765273
  16     -0.11927464566519
  17    -0.069298087987535
  18      0.40525454570885
  19    0.0033902128756042
  20    0.0092388253506006
  21      0.25433223144183
  22    -0.0024972174643863
  23    -0.014402512190427
  24     0.022113756745761
  25     0.015680611994333
  26    -0.00065238202873443
  27     -0.03264191237611
  28    0.0021801920306728
  29     0.030362698292455
  30     0.050995979848269
  31    0.0093770707950093
  32    0.00057005545182298
  33    0.0011024489730543
  34     0.030362775862594
  35     0.050996079124657
  36    -0.0093770639188216
  37       0.0006697355932
  38    0.0010448839254497
 Sym= A
 Ene=               9
 Spin= Alpha
 Occup=    0.00000
   1     0.011995553641491
   2      -1.6346066086826
   3       3.4170338013298
   4      0.15707907391133
   5    -0.091172344649298
   6      0.15738616975706
   7       0.3570739339352
   8       1.1036225925125
   9      0.38245121303526
  10     -0.28140879841914
  11    -0.098465259408299
  12      0.41160511849397
  13    -0.014591709375464
  14     -0.20561399436066
  15     0.034207056679789
  16       0.1472163414314
  17     -0.91610593713874
  18     0.096327334480276
  19    -0.014522411545692
  20    0.0031254343191255
  21      0.73722510469668
  22    -0.073371501741861
  23    -0.016750940968599
  24     0.093651491099686
  25     0.017887491069484
  26    -0.00030447546855463
  27     -0.19656011254434
  28     0.046655387110966
  29     0.050562368975688
  30    -0.017336075909586
  31    -0.027593668001363
  32     0.010864745829066
  33     0.016073563829197
  34     -0.90196966989193
  35      -1.1283784536147
  36    -0.053094719345103
  37      0.26239322513465
  38      0.17697683489074
 Sym= A
 Ene=              10
 Spin= Alpha
 Occup=    0.00000
   1      0.03268055100126
   2       0.1454072056929
   3     -0.89431774147308
   4    -0.090322250211926
   5     0.011290847675128
   6    -0.011967952364869
   7     -0.72009056791268
   8     0.030857411716643
   9    -0.080344796284015
  10      0.11091617554193
  11    -0.053038817042617
  12    -0.014826518130805
  13     -0.17615169242652
  14     0.014014345843354
  15      0.01058915855216
  16      -1.6251780254779
  17       3.4204868601435
  18     -0.14804128326897
  19      0.19000313264142
  20    -0.023900845811102
  21     -0.34571034178061
  22     -0.23268697885524
  23       1.2065841821763
  24      0.38044517303808
  25      0.22936639983831
  26    -0.0061154668528155
  27      0.31588654117678
  28     0.019911216555996
  29     -0.93075832615412
  30      -1.1540733458811
  31     0.056887287540947
  32      0.02074398306388
  33      0.32464095243965
  34     0.048018362716095
  35    -0.015643990014853
  36     0.025667279805964
  37    0.0074095065128259
  38     0.018113645054948
 Sym= A
 Ene=              11
 Spin= Alpha
 Occup=    0.00000
   1    0.0057459034277892
   2     0.040841029468778
   3      -0.1142516626603
   4    -0.0053482860306237
   5     0.019414810086924
   6    -0.0020985488460198
   7     -0.16926079685204
   8     0.072356092938906
   9    -0.095116030247854
  10    -0.014164246198162
  11    -0.015548196102384
  12    0.0035979251165242
  13    -0.015016161710231
  14    -0.0034952508677936
  15    0.00098977687975817
  16    -0.021834064051804
  17      -0.2929115249856
  18     0.023812143531827
  19     0.010588729633774
  20     0.063545268771818
  21    -0.079449038432919
  22     0.047294298778976
  23    -0.010953655121754
  24       0.1448412602338
  25      0.11700354079817
  26     0.038765909075195
  27     0.040501284990276
  28    0.0059498613547621
  29      -1.1128417936012
  30       1.5298380628928
  31     -0.41700368794529
  32      -0.1797289579284
  33    0.0064739043416572
  34    -0.0038178699038417
  35     -0.23926576833636
  36    -0.012940521031463
  37     0.014396108925863
  38     0.010392633868961
 Sym= A
 Ene=              12
 Spin= Alpha
 Occup=    0.00000
   1     0.010950872374972
   2    -0.020781505782772
   3      0.12761548421038
   4     0.037662595263624
   5     -0.13580257823119
   6    -0.090620739749879
   7    -0.068556236755603
   8    -0.071035011742407
   9    -0.095006143714638
  10      0.02640806932667
  11     0.070225951864734
  12     -0.21105112060953
  13      0.10887252426427
  14      0.10963485728576
  15    -0.0058062956136365
  16    -0.036574604297871
  17      0.11628899948411
  18    -0.0075000484857964
  19     0.014897476545631
  20    -0.014378437419192
  21     -0.16611328620179
  22      0.12167335300379
  23    -0.010936937928148
  24    -0.013496784154813
  25    -0.012871250504506
  26     0.015046135927248
  27    -0.0029910121677959
  28    -0.016346171239104
  29    0.0064090191604323
  30      0.23090971812965
  31    -0.015029620623367
  32    -0.0021552185808099
  33    -0.017667070001974
  34       1.2533482867904
  35        -1.42964480868
  36      -0.3169284665061
  37     -0.32203997295914
  38     0.020955966304009
 Sym= A
 Ene=              13
 Spin= Alpha
 Occup=    0.00000
   1    0.0046171512936279
   2    -0.026866184936686
   3    -0.010972264820092
   4    -0.00096126483440239
   5     0.012681374033375
   6     0.020333145714959
   7     0.020227283114776
   8    -0.0015529262056039
   9     0.027031443218251
  10     0.004770620594021
  11    0.0034208534753821
  12    -0.00094495003032666
  13    -0.00055440219837313
  14    0.00056521200219537
  15     0.088365042360499
  16     -0.41879380757328
  17     -0.34619549471516
  18     -0.13835880532105
  19    0.0024904821351458
  20     -0.61195086297984
  21    -0.050942209005781
  22    -0.0024734051186301
  23     -0.39687425145066
  24    -0.090689341249961
  25    -0.016400162511676
  26    -0.0020279468016337
  27    -0.002478852160603
  28    -0.00013851517222417
  29      0.88268451995968
  30      0.55531083933013
  31    -0.019202473937522
  32    0.0024241093529554
  33    -0.077558091613029
  34     -0.03062673818918
  35    -0.0031038430993929
  36    0.0037378878406308
  37    -0.0025333079183058
  38    -0.0013345128370141
 Sym= A
 Ene=              14
 Spin= Alpha
 Occup=    0.00000
   1    -0.023686953120215
   2      -0.1097724834732
   3      0.98269825462498
   4     0.081692546638428
   5    0.0017189921633655
   6    0.0061492920643427
   7      0.72415966747679
   8     0.017380222597899
   9     0.080045368191166
  10    -0.065233009632503
  11     0.056628571016768
  12     0.020285414073851
  13     0.089230112608325
  14      0.04505082990104
  15     0.026184524195577
  16      0.34275260203145
  17      -1.1292793140026
  18     -0.69421313332887
  19     -0.17336042832035
  20      0.13888538400804
  21       1.5876178072865
  22      0.18361755722991
  23      -0.3152111406808
  24     -0.12004937116811
  25       0.2100395656431
  26    -0.00012336279653383
  27      0.14053629179621
  28      0.42198323818707
  29      0.21276577018839
  30    -0.0082381279160337
  31     -0.18039243350775
  32    -0.030463827862849
  33    -0.016197513379807
  34    -0.077855068680653
  35      0.14873865500356
  36    -0.021807493733935
  37    -0.0081942733270639
  38    -0.0083199109098926
 Sym= A
 Ene=              15
 Spin= Alpha
 Occup=    0.00000
   1    -0.038581877001939
   2      0.22781628996649
   3      0.12266985717789
   4    0.0028679661275227
   5     -0.68604531754352
   6     -0.36707634818037
   7     -0.37258088524502
   8        1.376244785919
   9      0.74340741302521
  10    0.0076739229817141
  11     -0.02234476123203
  12      0.11701409857072
  13     -0.15895492116731
  14      0.40199791380598
  15    -0.010757694381482
  16    -0.034174338816534
  17      0.25021364607963
  18    -0.031301171821528
  19    -0.037731804513118
  20    -0.019028008725558
  21     -0.25816127907867
  22      -0.2790045901832
  23     -0.16909849315641
  24    -0.042095572376599
  25     0.038326015289052
  26    -0.0037851466780595
  27     0.043680934318277
  28      0.14731005095119
  29     0.026180341807974
  30      0.11233422669625
  31     0.017030662113961
  32      0.02668377298148
  33    -0.019566005785048
  34     -0.48926711650466
  35     -0.61286498458015
  36    -0.076702813111832
  37     0.052168007214119
  38     0.026323553515815
 Sym= A
 Ene=              16
 Spin= Alpha
 Occup=    0.00000
   1     -0.02162071038948
   2     -0.37403756338039
   3       1.1235706915176
   4     -0.67939686298169
   5     -0.18157905264861
   6      0.14216732179114
   7       1.5859598816511
   8       0.2992472212002
   9    -0.098434101403525
  10     0.092560917036155
  11      0.47842890695043
  12     0.011170615786766
  13     -0.16272447211061
  14     0.020031065816123
  15      0.02376587576148
  16      0.11126624325409
  17     -0.98427347255099
  18     0.080679659833999
  19    -0.0053541835651438
  20    -0.0034462387241899
  21      0.73017361521867
  22    -0.058194885739764
  23    -0.034346126719699
  24     0.036069476137756
  25     0.062426482765453
  26    0.00026514635192032
  27     -0.10641085225019
  28     0.028228323609422
  29     0.072237354206596
  30     -0.15086737388055
  31    -0.023684667197892
  32    0.0028793548384664
  33     0.012520352110417
  34     -0.16922820164154
  35     0.042328948482791
  36     -0.18578383614103
  37    -0.013101370108211
  38     0.031002852032204
 Sym= A
 Ene=              17
 Spin= Alpha
 Occup=    0.00000
   1     0.001175818488101
   2      -0.6120287399022
   3       1.2744203627305
   4      -0.2913804082916
   5      0.40253924433895
   6     -0.60733518942783
   7       1.0917794489501
   8     -0.47290960872068
   9       0.7522079309002
  10     -0.12099910024905
  11     -0.15536795134848
  12    -0.026249973384166
  13      0.27614464963397
  14      0.41559895325916
  15     0.030163114046915
  16      0.10451988048646
  17     -0.86668079448489
  18      0.11720424190085
  19    -0.011184103312971
  20      0.01354747329261
  21      0.70629983079445
  22     0.038495662318299
  23    -0.092869252972923
  24     0.078570343333316
  25      0.03476261062854
  26    0.0019220143912553
  27     -0.17088811225066
  28     0.020770601126454
  29     0.076426469565024
  30     -0.20334782025337
  31    0.00038990776363486
  32    -0.0025184431078646
  33     0.019776713566794
  34    -0.0054870020756525
  35    0.0071471883289364
  36     -0.10803281916418
  37    -0.00075278800053211
  38     -0.10336823582287
 Sym= A
 Ene=              18
 Spin= Alpha
 Occup=    0.00000
   1    -0.062151746252015
   2      0.22837209137894
   3      0.89139314596808
   4     -0.07603645407218
   5      0.43977432698174
   6      0.25518337178831
   7    -0.095669301360072
   8      0.54086341829866
   9      0.30960696125644
  10     -0.05096782683701
  11    -0.036476115716681
  12      0.32205395109395
  13     -0.28343600257439
  14    -0.062835770842764
  15    -0.0008606313352636
  16    -0.025564683196276
  17     0.015462450408415
  18    0.0075947577130353
  19    -0.015256480800147
  20    -0.0091888910107948
  21    -0.043877904277778
  22    -0.0020056058950202
  23    -0.026745693480588
  24    -0.0073243928080898
  25     0.008604083768229
  26    0.0027900257485467
  27    0.0098477889948936
  28     0.020228331802222
  29    -0.010599238228603
  30     0.074667490371854
  31    0.0084065446578365
  32    0.0021257386759059
  33    -0.0029888049275468
  34     -0.58388732505543
  35     -0.72618043063499
  36     -0.47758137393212
  37       1.1991035470475
  38      0.68818811972346
 Sym= A
 Ene=              19
 Spin= Alpha
 Occup=    0.00000
   1    8.9948283002083e-05
   2    -0.017910678922398
   3    -0.0026946931731548
   4    -0.0080385244219171
   5    0.0034975848415339
   6    -0.018400600425752
   7     0.013995272230383
   8    -0.008087308581467
   9    -0.034055967952239
  10     -0.00651592424207
  11    -0.024669274869601
  12    0.00085544583346798
  13    0.0099318249378105
  14    0.0023930914164868
  15    -0.063291975656221
  16      0.23020029945498
  17      0.85331015759161
  18     0.084011757422569
  19    0.0011991154100169
  20      0.53148938050781
  21     0.089992209942952
  22    0.0015904459593299
  23      0.63400218851723
  24        0.467817256336
  25      0.10158034382284
  26    0.0027196456483207
  27    0.0031905918911292
  28    0.00067633119652318
  29     -0.80750414666545
  30     -0.45269842471896
  31      0.38374787831781
  32    -0.014688030704848
  33       1.4189552971263
  34    -0.011194884063589
  35     0.030538453912348
  36    -0.010707680761917
  37    -0.0011181573650036
  38    0.0024053299372063
 Sym= A
 Ene=              20
 Spin= Alpha
 Occup=    0.00000
   1     0.029704634918734
   2      0.10353240197572
   3     -0.85074629654857
   4     -0.11498929508849
   5     0.017243749529879
   6    -0.0031269472358894
   7     -0.69548730533853
   8    -0.098408121552669
   9    -0.008137054743695
  10      0.10103078497079
  11    -0.034871903922724
  12    -0.013778917460722
  13     -0.15464251425677
  14    -0.019691013050588
  15    0.0033713060755893
  16     -0.61531202794463
  17       1.2468765944427
  18      0.27574423455303
  19     -0.72362225757278
  20     0.069244889518169
  21      -1.0663180967454
  22      0.88339452722893
  23    -0.083225070688404
  24     -0.18877962514634
  25     -0.30505347321922
  26     0.018558973447497
  27      0.23441037555618
  28      0.34175366754683
  29     0.016043317812557
  30     0.023694022056072
  31      0.10902998571343
  32    -0.089338022834758
  33    -0.057642040225962
  34     0.074985943299655
  35     -0.20228212756494
  36    0.00018291169513333
  37     0.018551962865099
  38    0.0074641313372617
 Sym= A
 Ene=              21
 Spin= Alpha
 Occup=    0.00000
   1    -0.0017816143254888
   2    0.0010499793375857
   3    -0.024264404066218
   4    -0.0017627475481314
   5     0.069585975676886
   6    -0.067258092921926
   7     0.030243220014702
   8      0.13322984632932
   9     -0.19872560352505
  10     -0.17705028576598
  11     0.018848512860187
  12    -0.077484570898826
  13     -0.11905842904971
  14    -0.024245157673958
  15    0.00081654613734297
  16    0.0039789936545679
  17     -0.01529855161088
  18    0.0030849416916937
  19    -0.0070565054133962
  20     0.010108150591193
  21     0.036969534999964
  22    -0.041519512603453
  23     0.048326741390627
  24      0.01166626181243
  25    -0.011161461583717
  26    0.00029471408989586
  27    0.0021325296521054
  28     0.013768509862212
  29    -0.011856003838196
  30    -0.053386768043789
  31    -0.0019538762574271
  32    -0.0001216096595387
  33    0.0079119689880784
  34     -0.22456433528744
  35      0.26587030465423
  36    0.0036133500489481
  37     -0.52332898595353
  38      0.96159597342154
 Sym= A
 Ene=              22
 Spin= Alpha
 Occup=    0.00000
   1    0.0087344586502534
   2    0.0065413881716025
   3     -0.21667349614981
   4     -0.04398531308068
   5    -0.0030528328607686
   6     0.034557417126288
   7     -0.16994402954154
   8    -0.062675175256725
   9     0.077344903568316
  10     0.030758049791677
  11     0.096423867233263
  12    0.0034906766352289
  13    -0.051777205659076
  14    -0.025437211344318
  15    -0.033070491843202
  16      0.13851843014786
  17      0.22979571157343
  18       0.2200944176352
  19      -0.2525122079204
  20     -0.20383486065969
  21     -0.36806411919625
  22      0.31520206936848
  23      0.41356259900165
  24     0.012355492784683
  25      0.96673369309744
  26    -0.064935423329992
  27      0.19619589346862
  28    -0.047756978526843
  29     -0.26576801081086
  30     -0.10838534455684
  31     -0.14240218189894
  32    -0.011720012320232
  33      0.11985653071759
  34    0.0083715763444529
  35    -0.046547956105019
  36    -0.015649063966219
  37    0.0087626240039189
  38    -0.0065795724109095
 Sym= A
 Ene=              23
 Spin= Alpha
 Occup=    0.00000
   1    -0.0076223058429351
   2     0.085696930255558
   3      0.13546341727884
   4    -0.087897286767806
   5      0.03892670896787
   6      0.01943235663986
   7     -0.38811703942658
   8     0.057026625026041
   9     0.017388537195296
  10    0.00049268199786006
  11     -0.10350640501254
  12    -0.040205257965633
  13     0.019061236288943
  14     -0.18501114925864
  15    -0.007405673965783
  16    0.0057180975991924
  17      0.18092191415401
  18     -0.03586640574422
  19     0.010221228460523
  20    -0.0035471942701244
  21     -0.12965197158305
  22     0.018884941674069
  23    -0.032706627052671
  24    -0.024110642700181
  25    -0.016270736229363
  26    -0.001626022595218
  27     0.021351072713261
  28    -0.026549606306894
  29     0.026338569942677
  30     0.088938951316792
  31    -0.014348113731679
  32    0.0059303325187018
  33    -0.013901720123582
  34      0.32531474901373
  35     -0.68754399422715
  36      0.97611901598551
  37       0.3449506426589
  38       0.2597047591147
 Sym= A
 Ene=              24
 Spin= Alpha
 Occup=    0.00000
   1    0.0008948280520613
   2     0.004492843859609
   3    -0.017067162190589
   4    -0.0032031881734853
   5     0.012369819338823
   6    -0.00075767369723773
   7    -0.038990195530007
   8     0.063403831609188
   9    -0.011604640670273
  10    -0.0024828113462956
  11    -0.0061555370998567
  12    0.0098905137495235
  13    -0.0065830334226128
  14     0.016483675166669
  15    -0.00048782889552354
  16    -0.0041498639717191
  17    -0.043332705043115
  18    -0.00036655868405686
  19    -0.093009462885087
  20     0.016273055423524
  21    -0.035083718749053
  22     -0.23846097065139
  23     0.003181578873197
  24     0.033234895713661
  25    0.0087098669539144
  26     -0.22290423633841
  27    0.0072155458796075
  28    -0.028414292860606
  29     -0.21663461088645
  30      0.28714867458351
  31    -0.0064493402846723
  32       1.0936545433639
  33    -0.0030575216481775
  34    -0.011841567934879
  35    -0.055802332744299
  36    0.0019995029586262
  37    0.0071118139316553
  38    0.0038688530522444
 Sym= A
 Ene=              25
 Spin= Alpha
 Occup=    0.00000
   1     0.043842742252676
   2     0.044418142925494
   3     -0.83078520163823
   4     -0.18942834615728
   5    0.0037817413037552