[Molden Format]
made by pyscf v[2.0.1]
[Atoms] (AU)
C   1   6     0.00000000000000     0.00000000000000     0.00000000000000
C   2   6     2.89040035821050     0.00000000000000     0.00000000000000
H   3   1     3.65380793584534     0.00000000000000     1.93990930394644
H   4   1     3.65380793584534    -1.68001073825540    -0.96995465197322
H   5   1     3.65380793584534     1.68001073825540    -0.96995465197322
H   6   1    -0.76340757763484     0.66348805817456     1.82291845791239
H   7   1    -0.76340757763484     1.24694966449241    -1.48605674244297
H   8   1    -0.76340757763484    -1.91043772266697    -0.33686171546942
[GTO]
1 0
 s    8 1.00
                  6665  0.00069158396281299
                  1000  0.0053257961529341
                   228   0.027060721042034
                 64.71    0.10165684614077
                 21.06     0.2745748236174
                 7.495    0.44829431892377
                 2.797    0.28490261071525
                0.5215   0.015194859206082
 s    8 1.00
                  6665  -0.00029326965268655
                  1000  -0.0023180354739745
                   228  -0.011499786038565
                 64.71  -0.046826727009787
                 21.06   -0.12846616875047
                 7.495   -0.30126627246289
                 2.797   -0.25563070233011
                0.5215      1.093793361012
 s    1 1.00
                0.1596                   1
 p    3 1.00
                 9.439   0.056979251590039
                 2.002    0.31320721150073
                0.5456    0.76037674173753
 p    1 1.00
                0.1517                   1
 d    1 1.00
                  0.55                   1

2 0
 s    8 1.00
                  6665  0.00069158396281299
                  1000  0.0053257961529341
                   228   0.027060721042034
                 64.71    0.10165684614077
                 21.06     0.2745748236174
                 7.495    0.44829431892377
                 2.797    0.28490261071525
                0.5215   0.015194859206082
 s    8 1.00
                  6665  -0.00029326965268655
                  1000  -0.0023180354739745
                   228  -0.011499786038565
                 64.71  -0.046826727009787
                 21.06   -0.12846616875047
                 7.495   -0.30126627246289
                 2.797   -0.25563070233011
                0.5215      1.093793361012
 s    1 1.00
                0.1596                   1
 p    3 1.00
                 9.439   0.056979251590039
                 2.002    0.31320721150073
                0.5456    0.76037674173753
 p    1 1.00
                0.1517                   1
 d    1 1.00
                  0.55                   1

3 0
 s    3 1.00
                 13.01   0.033498726389998
                 1.962    0.23480080117413
                0.4446     0.8136829578829
 s    1 1.00
                 0.122                   1
 p    1 1.00
                 0.727                   1

4 0
 s    3 1.00
                 13.01   0.033498726389998
                 1.962    0.23480080117413
                0.4446     0.8136829578829
 s    1 1.00
                 0.122                   1
 p    1 1.00
                 0.727                   1

5 0
 s    3 1.00
                 13.01   0.033498726389998
                 1.962    0.23480080117413
                0.4446     0.8136829578829
 s    1 1.00
                 0.122                   1
 p    1 1.00
                 0.727                   1

6 0
 s    3 1.00
                 13.01   0.033498726389998
                 1.962    0.23480080117413
                0.4446     0.8136829578829
 s    1 1.00
                 0.122                   1
 p    1 1.00
                 0.727                   1

7 0
 s    3 1.00
                 13.01   0.033498726389998
                 1.962    0.23480080117413
                0.4446     0.8136829578829
 s    1 1.00
                 0.122                   1
 p    1 1.00
                 0.727                   1

8 0
 s    3 1.00
                 13.01   0.033498726389998
                 1.962    0.23480080117413
                0.4446     0.8136829578829
 s    1 1.00
                 0.122                   1
 p    1 1.00
                 0.727                   1

[5d]
[7f]
[9g]

[MO]
 Sym= A
 Ene=               0
 Spin= Alpha
 Occup=    1.00000
   1    -0.00013590194112122
   2    0.00014973347900764
   3    0.0024179875918293
   4    0.00031280920089786
   5    -2.3778308378528e-07
   6    6.0960715950255e-08
   7    0.0011613860452666
   8    -9.4280898422882e-08
   9    3.7245472920666e-08
  10    0.00010360291657195
  11    -1.8228737805849e-08
  12    1.1266251417339e-08
  13    -0.00017946090673397
  14    -1.2424028833985e-08
  15       1.0022714157769
  16    0.0054807502671059
  17    -0.0088721181005561
  18    0.00020189398032377
  19    -4.6596529873546e-07
  20    -3.2825321647992e-07
  21    0.00078399402964147
  22    -2.1474834804697e-07
  23    -1.5750546718408e-07
  24    8.9022818583385e-05
  25    -1.6163137911406e-08
  26    2.3801977047935e-08
  27    -0.00015422689752788
  28    -7.3052194407357e-09
  29    0.00047736990500284
  30    0.0012670828496333
  31    9.0100597943545e-05
  32    -1.1757782024711e-06
  33    0.00036757993194819
  34    0.00047814004418008
  35    0.0012674170553465
  36    9.0073840933344e-05
  37    -0.00031771832584856
  38    -0.00018477837023176
  39    0.00047746721604605
  40    0.0012671485221055
  41    9.009744813775e-05
  42    0.00031890377696577
  43    -0.00018279627020892
  44    -0.00010829419199299
  45    8.9504710691313e-05
  46    4.3578099001518e-05
  47    -2.6755082992915e-06
  48    -1.7036280031397e-05
  49    -0.00010847758671967
  50    8.9389194727487e-05
  51    4.3571460976787e-05
  52    -1.3420849500096e-05
  53    1.0823305255693e-05
  54    -0.0001081486345178
  55    8.9501798224631e-05
  56    4.3584509924371e-05
  57    1.6102780166314e-05
  58    6.2142301906291e-06
 Sym= A
 Ene=               1
 Spin= Alpha
 Occup=    1.00000
   1       1.0022714225448
   2    0.0054807040225012
   3    -0.0088721462880839
   4    -0.00020187493786151
   5    1.0057247096682e-06
   6    -9.0063696279571e-08
   7    -0.00078398083150425
   8    4.8232443894084e-07
   9    -4.4639448118207e-08
  10    8.9078027907558e-05
  11    6.6165579859369e-09
  12    -2.8915615346937e-08
  13    -0.00015420146733743
  14    -3.9842392211033e-08
  15    -0.00013591212619181
  16    0.00014954440964021
  17    0.0024178713784269
  18    -0.00031289777549205
  19    5.9043950549531e-09
  20    6.0507108488375e-08
  21    -0.0011614308264539
  22    -3.4959488319131e-08
  23    2.3859043713795e-08
  24    0.00010361502244472
  25    7.1596562420439e-09
  26    2.277570454919e-09
  27    -0.000179450676214
  28    -4.7332651530077e-08
  29    -0.00010836788150618
  30    8.9479989253827e-05
  31    -4.3578168743128e-05
  32    -3.3206698267093e-06
  33    -1.6913692271484e-05
  34    -0.00010840204835355
  35    8.9503071689335e-05
  36    -4.3573857607774e-05
  37    1.6301801544744e-05
  38    5.5809419001512e-06
  39    -0.00010851648363803
  40    8.9336801232978e-05
  41    -4.3572955328674e-05
  42    -1.2986556995819e-05
  43    1.1333374606774e-05
  44    0.0004778510439502
  45    0.0012673010879252
  46    -9.0083301241336e-05
  47    0.00012683252309231
  48    0.00034498473019669
  49    0.00047825174278682
  50    0.0012674855694127
  51    -9.0069944510964e-05
  52    0.00023537647224141
  53    -0.00028228423364572
  54    0.00047678234402019
  55    0.0012668365997234
  56    -9.011977682527e-05
  57    -0.00036222717850527
  58    -6.2699272645757e-05
 Sym= A
 Ene=               2
 Spin= Alpha
 Occup=    1.00000
   1    -0.0024023394738809
   2    -0.020560920664733
   3    -0.015271253833035
   4    -0.025090620063103
   5    -0.00071177652085955
   6    0.00035269402489103
   7    -0.015509586646847
   8    -0.0032415516872219
   9    -0.012605861608912
  10    -0.0015496841687758
  11     0.016375441492657
  12    -0.001661150127302
  13     0.004300064367146
  14    -0.00017930995195623
  15    -0.013465675594131
  16      0.18292073897393
  17      0.11065109953659
  18      0.12422580922617
  19    -0.00087339475182996
  20       0.3462863031692
  21     0.060478842228938
  22    -0.00011713780001379
  23       0.1662922229337
  24     0.019059327708663
  25     0.013792265307168
  26    -0.00041182857378845
  27    0.0023850296087977
  28    -5.579693388105e-05
  29      0.43098262089909
  30       0.1612512041389
  31    -0.012734021811757
  32    -0.00012650720016101
  33    -0.030009636515302
  34    -0.019991565507503
  35    -0.036826476867804
  36     0.002555172987494
  37    0.0021534439824426
  38     0.011928870896334
  39    -0.020253985899821
  40    -0.037313616982854
  41    0.0025350753294671
  42    -0.0020331982751213
  43     0.011804865610963
  44    -0.022753102671612
  45    -0.026010405750483
  46    -0.0013425963183451
  47    -0.00013722986954411
  48    -0.00081944975835813
  49     0.018737294824196
  50      0.03265355185497
  51    -0.00074999372701725
  52    0.00053616391506477
  53    -0.00070096336847225
  54    0.0041376284045697
  55    0.0083343512922621
  56    -0.0016182798438032
  57    4.3630625420718e-05
  58    -0.00035254942994104
 Sym= A
 Ene=               3
 Spin= Alpha
 Occup=    1.00000
   1     -0.01346437113283
   2      0.18292203000327
   3      0.11065218322973
   4     -0.12422118670115
   5     -0.34117945113059
   6    -0.059263499153034
   7    -0.060476658024503
   8     -0.16378739452346
   9     -0.02875703370285
  10    -0.010792884063665
  11    0.0023398098949804
  12    0.0056666307134205
  13    -0.014849754025269
  14     0.013592550435121
  15    -0.0024029848612996
  16    -0.020559905610193
  17    -0.015270312335495
  18     0.025085867165493
  19    -0.00047008831488237
  20    0.00064163629864887
  21     0.015507339948838
  22     0.011852026065531
  23    0.0053819221883848
  24    -0.0033990820438221
  25    0.0026666595253044
  26    -0.0012846449363794
  27    0.0032327308345779
  28     0.016157939318887
  29    0.0041376260608928
  30     0.008333639324509
  31    0.0016181466160367
  32    0.00035479400969877
  33    1.8227604681682e-05
  34    -0.022755473154869
  35    -0.026011376333512
  36    0.0013425466115454
  37    0.00078301289694913
  38    0.00027738679217734
  39     0.018736463605197
  40     0.032653425622351
  41    0.00074991626288218
  42    0.00078353864299538
  43    -0.00040630164047383
  44    -0.019986494690322
  45    -0.036824559553837
  46    -0.0025548764852669
  47    -0.011373931343255
  48    -0.0041923335215598
  49     -0.02026169450483
  50    -0.037317103248727
  51    -0.0025352138876265
  52    -0.011978239618396
  53    -4.7823408996209e-05
  54      0.43098256780933
  55      0.16125106536001
  56     0.012734138297545
  57     0.029531679654644
  58    0.0053359592361397
 Sym= A
 Ene=               4
 Spin= Alpha
 Occup=    1.00000
   1    -0.002402114078216
   2    -0.020561398973542
   3    -0.015271590713414
   4    -0.025091142979639
   5    0.00065695601007752
   6    0.0004368986628408
   7    -0.015509801760201
   8    -0.0092983510957485
   9     0.009108698441921
  10    -0.0038453217244184
  11    -0.0080323322883239
  12    0.00013082023105937
  13     0.002974569660371
  14      0.01427142576437
  15    -0.013465729088535
  16      0.18291911500714
  17      0.11065005864281
  18      0.12422577469281
  19      0.30033043158991
  20     -0.17238729260656
  21     0.060478803891857
  22      0.14407247203324
  23    -0.083044765197663
  24    -0.0042404295679762
  25    -0.0068476838137952
  26    -0.015121407632484
  27    -0.011067121632891
  28     0.011972599066527
  29     -0.01999261254033
  30    -0.036826513275185
  31    0.0025552275804888
  32    0.0092540192082763
  33    -0.0078292407642072
  34     -0.02025569923729
  35    -0.037314494394782
  36    0.0025351340221945
  37     0.011239829415053
  38    -0.0041417149534801
  39      0.43098295770456
  40      0.16125177701127
  41    -0.012734027302461
  42    -0.025925797284895
  43     0.015114349616933
  44    0.0041336689419699
  45    0.0083326697548601
  46    -0.001618427885395
  47    -0.00032714973684324
  48    0.00013871807250638
  49    -0.022753575343604
  50    -0.026010629384631
  51    -0.0013426219842901
  52    -0.00064115659404401
  53    0.00052843755295542
  54     0.018741499781743
  55     0.032655522770955
  56    -0.00074986412238287
  57    -0.00087493618043686
  58    -0.00011388723616379
 Sym= A
 Ene=               5
 Spin= Alpha
 Occup=    1.00000
   1    -0.013466739884713
   2      0.18292067709396
   3      0.11065098388944
   4     -0.12422733400761
   5      0.11926679861302
   6      0.32510002876601
   7    -0.060479562360526
   8     0.056989668598216
   9      0.15622180471405
  10     0.015244488901617
  11    -0.012941430812093
  12      0.01169138508966
  13    0.00018239714651633
  14    -0.0047698460863586
  15    -0.0024024793664195
  16    -0.020561408498263
  17    -0.015271646189817
  18     0.025091935450396
  19    0.00079332967946338
  20    8.4077066151696e-05
  21      0.01551021333273
  22    -0.0012639225035205
  23    -0.012956122082995
  24    -0.0026381859827541
  25    -0.015326518313221
  26    0.0017916841158426
  27    0.0036715125737298
  28    -0.0057695057770101
  29    -0.022756004385822
  30    -0.026011278082331
  31    0.0013427257643368
  32    -0.00015120122972403
  33    -0.0008167957275121
  34     0.018736711206956
  35     0.032653706741851
  36    0.00075006888201036
  37    -0.00074354991471076
  38    -0.00047547548014228
  39    0.0041417086104425
  40    0.0083355424452061
  41    0.0016181635477468
  42    -0.00016182869952483
  43    -0.00031626832831973
  44      0.43098278352559
  45      0.16125139031662
  46      0.01273398058315
  47    -0.010144743264575
  48    -0.028243217922776
  49    -0.019983740101332
  50    -0.036823396783619
  51    -0.002554936254017
  52    0.0020561579629202
  53       0.0119464174322
  54    -0.020260553754588
  55    -0.037316260014717
  56    -0.0025353347424837
  57    0.0059477927250754
  58     0.010397328977538
 Sym= A
 Ene=               6
 Spin= Alpha
 Occup=    1.00000
   1    -0.0024022181972448
   2    -0.020559863627025
   3    -0.015270637269294
   4    -0.025091655786451
   5    5.1975781837116e-05
   6    -0.00078964697656459
   7    -0.015510075482372
   8     0.012538511917573
   9    0.0034972050428464
  10    -0.0013532332001007
  11    -0.0083431856386008
  12    0.0015304025477693
  13     0.004413382416562
  14    -0.014091951698852
  15    -0.013467368192597
  16      0.18291986291268
  17      0.11065054774463
  18      0.12422590713952
  19      -0.2994559833418
  20     -0.17390067242794
  21     0.060478902383049
  22     -0.14395472519567
  23    -0.083248230566257
  24    -0.0036227313357759
  25    -0.0069446463972063
  26     0.015533175623969
  27    -0.010710435782255
  28     -0.01191662518951
  29    -0.020255574444112
  30    -0.037314373170472
  31    0.0025351329850822
  32    -0.0092067145446416
  33    -0.0076631459420348
  34      0.43098290363149
  35      0.16125167581504
  36    -0.012734018547993
  37     0.026052347573777
  38     0.014895215700532
  39    -0.019991402385958
  40    -0.036826272825934
  41    0.0025551829249625
  42    -0.011407426427057
  43    -0.0040995366651137
  44     0.018741217900434
  45     0.032655172721124
  46    -0.00074987997242519
  47    0.00033889879275746
  48    0.00081458305306864
  49    0.0041371884184007
  50    0.0083339229011134
  51    -0.0016183112513126
  52    0.0002835516228786
  53    0.00021415250346621
  54    -0.022754033783834
  55    -0.026010990272347
  56    -0.0013426429886409
  57    0.00077827123235872
  58    0.00029096747430603
 Sym= A
 Ene=               7
 Spin= Alpha
 Occup=    1.00000
   1    -0.013467494839139
   2      0.18291911806425
   3      0.11065011297513
   4     -0.12422520917064
   5      0.22191224004946
   6     -0.26583987754303
   7    -0.060478550132032
   8      0.10679744173544
   9     -0.12746639531768
  10    0.0067444163394679
  11     0.010601800010212
  12    -0.017358165994657
  13    -0.0047249381761979
  14    -0.0088225841345256
  15    -0.0024021562495998
  16    -0.020560473009193
  17    -0.015270991058233
  18     0.025091023409014
  19    -0.00032105059109048
  20    -0.00072477117038843
  21     0.015509753319218
  22    -0.010587063870946
  23    0.0075747775682768
  24    -0.00071099220288881
  25     0.012660054968504
  26    -0.0005071687911645
  27    0.0047841934151899
  28    -0.010388325194699
  29     0.018740717595697
  30     0.032655439803976
  31    0.00074990220715736
  32    -3.9914144021445e-05
  33    0.00088146559696599
  34    0.0041378431003691
  35    0.0083336585264256
  36    0.0016182636016452
  37    -0.00019316548449648
  38    0.0002982611311433
  39    -0.022755730568477
  40    -0.026011413192215
  41    0.0013426792750235
  42    -0.00063171949995647
  43    0.00053950069559626
  44    -0.020263597401324
  45    -0.037317695216733
  46    -0.0025353903809647
  47    0.0060305639423761
  48    -0.010349423668203
  49      0.43098305627925
  50      0.16125189470934
  51      0.01273403445005
  52    -0.019386932905847
  53     0.022907134155566
  54      -0.0199853328764
  55     -0.03682363822924
  56    -0.0025549597253412
  57    0.0093176494128146
  58    -0.0077539883710552
 Sym= A
 Ene=               8
 Spin= Alpha
 Occup=    1.00000
   1     0.010903138770281
   2     -0.19903322700098
   3     -0.14924352981409
   4     -0.36533808581803
   5    -4.1163686977507e-06
   6    -1.3994820137981e-06
   7     -0.16967352056026
   8    -1.9652300095084e-06
   9    -6.9868324469775e-07
  10     0.016045647089081
  11    8.0513324442793e-08
  12    3.5972569210344e-08
  13    -0.027792307646116
  14    1.4478690481231e-07
  15     0.010903345600747
  16     -0.19903520438097
  17      -0.1492447549387
  18      0.36533712224267
  19    -4.0838864960933e-07
  20    5.3976716440336e-07
  21      0.16967308363716
  22    -5.5777521488231e-08
  23    3.4598350632902e-07
  24     0.016045787804431
  25    8.5722818892524e-08
  26    1.2940174509389e-09
  27    -0.027792092127527
  28    1.7913254192357e-07
  29     0.022206920004267
  30     0.037284950165286
  31    0.0092283916787552
  32    1.6835197741717e-06
  33    0.0014063129955277
  34     0.022206129482128
  35     0.037284258459777
  36    0.0092284033007679
  37    -0.0012187631179525
  38    -0.00070167822909785
  39     0.022206028076724
  40     0.037284709320866
  41    0.0092284150134393
  42    0.0012171108754975
  43    -0.00070464207765523
  44     0.022205229320157
  45     0.037283801491535
  46    -0.0092284465492798
  47    0.00047929613807286
  48    0.0013221053862127
  49     0.022206312417834
  50     0.037284338438576
  51    -0.0092284117979918
  52    0.00090512459233408
  53    -0.0010762474017928
  54     0.022211332558518
  55     0.037286478828089
  56    -0.0092282412351371
  57    -0.0013843433994018
  58    -0.00024583473956588
 Sym= A
 Ene=               9
 Spin= Alpha
 Occup=    0.00000
   1      -1.0383090692623
   2      -2.0380138091174
   3       6.6371361200762
   4     0.076906708104129
   5     0.019939246561814
   6     0.013956457449473
   7      0.41592094232128
   8    0.0063634373915963
   9     0.018113542201522
  10     0.046599952789902
  11    0.0036469593818619
  12     0.021731910990271
  13     0.055691090534491
  14     -0.01570183271571
  15      0.11030342909471
  16      0.12985893995623
  17      -2.2578450464342
  18      0.21793226760449
  19    0.0016243572218643
  20    -0.0025919238813244
  21       1.2450397906596
  22    0.0050630675212443
  23    -0.004756314737622
  24     0.036622330639161
  25    0.0020314070640933
  26    -0.002323601148852
  27    -0.073667349214315
  28    -0.0017968099614939
  29      0.13172113455067
  30     -0.02301366344772
  31    -0.056068116594363
  32    0.0030127458234715
  33    0.0038525913958222
  34      0.13017243727455
  35    -0.021507972303574
  36    -0.056519222400968
  37    -0.0049030287836756
  38    -0.00057784175944868
  39      0.12643010225442
  40    -0.025371443180824
  41    -0.054550815230478
  42    0.0022680660136924
  43    -0.0059046525686666
  44      -0.6795748304815
  45     -0.90557770030907
  46     -0.04023751431965
  47     0.034386472882825
  48     0.082092659565368
  49     -0.64369503836759
  50     -0.88825422738992
  51    -0.025808098581889
  52     0.059309494193141
  53     -0.05151295351865
  54     -0.61264963323666
  55      -0.8843419159366
  56    -0.020079624783398
  57    -0.062895590153497
  58    -0.0023181762126494
 Sym= A
 Ene=              10
 Spin= Alpha
 Occup=    0.00000
   1      0.10692734746243
   2      0.13949315563624
   3      -1.8187457006756
   4     -0.15064803798707
   5    -0.00064104657654689
   6    -0.010343930810598
   7     -0.95391556935165
   8    -0.0084176085279583
   9    -0.036997666272418
  10     0.028968911426583
  11     -0.01617497894343
  12    -0.0060529790070261
  13    -0.041521014539662
  14    -0.0041469908485436
  15     -0.98954281028912
  16      -1.9450255316069
  17       6.2837408844668
  18     -0.14770314319138
  19    -0.024368384707561
  20    -0.057558018995594
  21      0.11783280463977
  22    -0.0046274510934822
  23     0.037403771632293
  24    -0.025079577117241
  25    -0.077660811547684
  26     0.053776743374687
  27     -0.11425831552254
  28    -0.022473023896081
  29     -0.61093650017611
  30     -0.97252871319801
  31    0.0058741609970372
  32    -0.0089350100874541
  33     0.058724232790725
  34     -0.72344725808839
  35     -0.96262511981138
  36     0.021400817472614
  37     -0.10228926453953
  38    -0.066059431785377
  39     -0.66621834102393
  40     -0.95091573461564
  41     0.008469130738891
  42     0.075296120565203
  43    -0.059745334836778
  44      0.12434523471946
  45     0.037020536222094
  46      0.05629610132874
  47    -0.00090396218722819
  48    0.0022363771697632
  49      0.11128502219357
  50     0.017025321409823
  51     0.050188344387166
  52    0.0049115931598424
  53    0.0043444971476317
  54      0.11751440879995
  55     0.014693469421583
  56     0.050996340105684
  57    0.0019793964061794
  58    -0.0010178369449837
 Sym= A
 Ene=              11
 Spin= Alpha
 Occup=    0.00000
   1    -0.019413210222897
   2    -0.037229041908394
   3      0.14433061480079
   4    -0.028931515597183
   5    -0.082158041890492
   6     -0.42894432889671
   7      0.15694037888655
   8     0.022648193850027
   9       2.8130534737486
  10    -0.060512137337812
  11     -0.78408457903323
  12       0.2280301744403
  13    -0.028765558672785
  14     0.032046421395581
  15    0.0041830504061255
  16    0.0045792875067279
  17     -0.13731425155073
  18      0.01197414205428
  19    0.0047127390030235
  20     -0.01327224201371
  21     0.089149386691591
  22     0.090314671340142
  23     -0.79868366715462
  24    -0.014502357087835
  25    -0.066901133788994
  26    -0.012285058893651
  27    -0.013008416697473
  28     0.014610414392005
  29      0.15847137226115
  30      0.20701404325156
  31     0.045710669325412
  32    0.0022620969295231
  33    -0.037157996992228
  34    -0.051427735103801
  35     -0.02338368231096
  36    -0.040272401001622
  37    -0.039156869194085
  38      0.04958689851854
  39    -0.093460320791428
  40     -0.22510464572463
  41    -0.010166739064925
  42     0.060150358287905
  43     0.040169162182275
  44     -0.81331759142967
  45      -1.3748391271502
  46    -0.0090624041721753
  47      0.12013185626565
  48      0.13281188344131
  49      0.73459034516852
  50       1.1364398869804
  51     0.010634259400464
  52     -0.27585260130095
  53    -0.0014708949769566
  54     0.069465410633187
  55      0.27964932088622
  56    -0.029696466407083
  57     0.046449178962396
  58      -0.2759453997598
 Sym= A
 Ene=              12
 Spin= Alpha
 Occup=    0.00000
   1    0.0018703122783086
   2    0.0036219084562598
   3    -0.012338658513294
   4    0.00086654833258102
   5     -0.42452098408057
   6      0.08341691679911
   7    -0.011076053938494
   8       2.7668428051887
   9    -0.0048199140423496
  10      0.18403595849407
  11    -0.023266199735425
  12      0.10201587891121
  13      0.10192163129003
  14      -0.8041011361298
  15    -1.5868064249359e-05
  16    0.00045451127511924
  17     0.010836103747056
  18    -0.0020162769482748
  19    -0.0082950175718216
  20    -0.0063238815824926
  21    -0.0070048733352494
  22     -0.77832010698366
  23    -0.095652270344203
  24     -0.01015555914725
  25    -0.011276247482313
  26     0.015739146100737
  27    -0.0046896031412389
  28    -0.073232048386426
  29     0.024002269692665
  30      0.11779899225391
  31    -0.017169622052898
  32     0.072911380655202
  33    -0.012570603073997
  34     -0.14216861376544
  35     -0.24333284856957
  36    -0.033030325567998
  37    -0.015254413201307
  38    -0.052532997671195
  39      0.11720771748487
  40      0.12832718460213
  41     0.050477563936696
  42    -0.0060274720070231
  43     0.043939530258052
  44     -0.38801727643122
  45     -0.49659997073062
  46    -0.024993560602419
  47     -0.23689984427368
  48       0.1976386812745
  49     -0.49141888892765
  50     -0.93343546599572
  51     0.021047962539196
  52    -0.095005784963322
  53     -0.20076152428795
  54      0.87878692348638
  55        1.427853686403
  56    0.0043124017428874
  57      0.17811259661158
  58      0.12115942312095
 Sym= A
 Ene=              13
 Spin= Alpha
 Occup=    0.00000
   1     -0.20436619788638
   2     -0.38193694791468
   3       1.7048664437443
   4     -0.60700400940154
   5    -0.0060873895357363
   6      0.01800990549786
   7       3.4444713967279
   8     0.010468258456049
   9     -0.14199755985927
  10     -0.16704435745278
  11     0.035919263253739
  12    -0.015053512164107
  13      0.25818067289007
  14    0.0064554469346583
  15     0.050720055801275
  16      0.02628622062862
  17       -2.599041564583
  18      0.28246753533649
  19    -0.001590181555266
  20    0.0014903744820891
  21       1.7414664476614
  22    -0.011501337024847
  23     0.040057653730497
  24     0.057952089072668
  25    0.0024239034434135
  26    0.0013225520153172
  27     -0.09557061313152
  28     0.001039922783015
  29     0.061548337901715
  30      -0.3146167090725
  31    -0.022677335245631
  32    -0.0010083690835892
  33     0.030774109741053
  34     0.071347227920542
  35     -0.30606590649214
  36    -0.018247308441133
  37    -0.022414506583595
  38    -0.017966087166549
  39     0.076105257344968
  40     -0.29206532449535
  41    -0.020441868034084
  42     0.022970844949169
  43    -0.014747942432507
  44      0.16591033979742
  45       0.5923179183269
  46      -0.1710764465863
  47    -0.039899457703784
  48    -0.091607810816118
  49     0.082512206625288
  50      0.46342692733336
  51     -0.17585067914888
  52    -0.046887323630549
  53     0.066841126555751
  54      0.10688999368298
  55      0.51450115750519
  56     -0.17495116412522
  57     0.080411926153558
  58     0.025279831748243
 Sym= A
 Ene=              14
 Spin= Alpha
 Occup=    0.00000
   1    0.0031523017049941
   2    0.0028481546928275
   3     -0.11930144197254
   4    -0.011675250620485
   5    -0.0078454484757856
   6    -0.012190308536952
   7     -0.07791549620574
   8    -0.095935652469277
   9     -0.79537707374356
  10    -0.016857966216595
  11         0.06926218656
  12    -0.010131706207814
  13    -0.014707607091937
  14    0.0095852497589162
  15    -0.015620358552092
  16    -0.029888243765201
  17      0.11671723735969
  18     0.024664426638668
  19     0.075198028546691
  20     -0.41873102093297
  21     -0.13972605946675
  22     -0.02485715203073
  23       2.8158361726237
  24      0.15551715750487
  25      0.79715893860352
  26     -0.16842659424551
  27      0.10003481879789
  28    0.0073629146345418
  29     -0.90789115483888
  30      -1.4632420966093
  31     0.017802436423371
  32     0.035846452095131
  33      0.19777872415156
  34      0.51605193584999
  35       0.7416210264523
  36    -0.017775658403391
  37      0.24711843772689
  38     -0.16528587431575
  39      0.38960031091361
  40      0.76387646862005
  41     0.022997322046653
  42     -0.18017229770484
  43     -0.16264915306491
  44      0.15691726261918
  45       0.2343550546898
  46    -0.037333581032579
  47    -0.039173753403318
  48    -0.028050727352078
  49    -0.097470673744378
  50      -0.1041846468819
  51     0.049904683034446
  52     0.049207080706756
  53     0.011501753119161
  54    -0.048159368133271
  55     -0.16701434526218
  56    -0.0087867819228107
  57    -0.032723731910643
  58      0.06774372394035
 Sym= A
 Ene=              15
 Spin= Alpha
 Occup=    0.00000
   1    -0.0067036864227327
   2    -0.0091230334682477
   3      0.17292105102318
   4     0.011300643393895
   5    -0.018130916555556
   6    0.0038025059330304
   7      0.11085322740291
   8     -0.81836752797411
   9     0.079928992044278
  10    -0.011663979119892
  11    -0.016127086784967
  12     0.022752038304944
  13    -0.003727373033535
  14     0.060485848530398
  15     0.028186598650401
  16     0.054256475326653
  17     -0.20777000123948
  18    -0.037774504645716
  19     -0.43182825580327
  20    -0.086365000690773
  21      0.18747046170645
  22       2.8547640097441
  23     0.060234448097658
  24     -0.14109541401625
  25    -0.030044943835501
  26     -0.19870671665097
  27    -0.074605480591867
  28      0.76316932637419
  29      0.07989263669238
  30    -0.040968962542569
  31       -0.032490249687
  32     -0.28420029779488