[Molden Format]
made by pyscf v[2.0.1]
[Atoms] (AU)
C   1   6     0.00000000000000     0.00000000000000     0.00000000000000
C   2   6     2.89040035821050     0.00000000000000     0.00000000000000
H   3   1     3.65380793584534     0.00000000000000     1.93990930394644
H   4   1     3.65380793584534    -1.68001073825540    -0.96995465197322
H   5   1     3.65380793584534     1.68001073825540    -0.96995465197322
H   6   1    -0.76340757763484     0.96995465197322     1.68001073825540
H   7   1    -0.76340757763484     0.96995465197322    -1.68001073825540
H   8   1    -0.76340757763484    -1.93990930394644    -0.00000000000000
[GTO]
1 0
 s    8 1.00
                  6665  0.00069158396281299
                  1000  0.0053257961529341
                   228   0.027060721042034
                 64.71    0.10165684614077
                 21.06     0.2745748236174
                 7.495    0.44829431892377
                 2.797    0.28490261071525
                0.5215   0.015194859206082
 s    8 1.00
                  6665  -0.00029326965268655
                  1000  -0.0023180354739745
                   228  -0.011499786038565
                 64.71  -0.046826727009787
                 21.06   -0.12846616875047
                 7.495   -0.30126627246289
                 2.797   -0.25563070233011
                0.5215      1.093793361012
 s    1 1.00
                0.1596                   1
 p    3 1.00
                 9.439   0.056979251590039
                 2.002    0.31320721150073
                0.5456    0.76037674173753
 p    1 1.00
                0.1517                   1
 d    1 1.00
                  0.55                   1

2 0
 s    8 1.00
                  6665  0.00069158396281299
                  1000  0.0053257961529341
                   228   0.027060721042034
                 64.71    0.10165684614077
                 21.06     0.2745748236174
                 7.495    0.44829431892377
                 2.797    0.28490261071525
                0.5215   0.015194859206082
 s    8 1.00
                  6665  -0.00029326965268655
                  1000  -0.0023180354739745
                   228  -0.011499786038565
                 64.71  -0.046826727009787
                 21.06   -0.12846616875047
                 7.495   -0.30126627246289
                 2.797   -0.25563070233011
                0.5215      1.093793361012
 s    1 1.00
                0.1596                   1
 p    3 1.00
                 9.439   0.056979251590039
                 2.002    0.31320721150073
                0.5456    0.76037674173753
 p    1 1.00
                0.1517                   1
 d    1 1.00
                  0.55                   1

3 0
 s    3 1.00
                 13.01   0.033498726389998
                 1.962    0.23480080117413
                0.4446     0.8136829578829
 s    1 1.00
                 0.122                   1
 p    1 1.00
                 0.727                   1

4 0
 s    3 1.00
                 13.01   0.033498726389998
                 1.962    0.23480080117413
                0.4446     0.8136829578829
 s    1 1.00
                 0.122                   1
 p    1 1.00
                 0.727                   1

5 0
 s    3 1.00
                 13.01   0.033498726389998
                 1.962    0.23480080117413
                0.4446     0.8136829578829
 s    1 1.00
                 0.122                   1
 p    1 1.00
                 0.727                   1

6 0
 s    3 1.00
                 13.01   0.033498726389998
                 1.962    0.23480080117413
                0.4446     0.8136829578829
 s    1 1.00
                 0.122                   1
 p    1 1.00
                 0.727                   1

7 0
 s    3 1.00
                 13.01   0.033498726389998
                 1.962    0.23480080117413
                0.4446     0.8136829578829
 s    1 1.00
                 0.122                   1
 p    1 1.00
                 0.727                   1

8 0
 s    3 1.00
                 13.01   0.033498726389998
                 1.962    0.23480080117413
                0.4446     0.8136829578829
 s    1 1.00
                 0.122                   1
 p    1 1.00
                 0.727                   1

[5d]
[7f]
[9g]

[MO]
 Sym= A
 Ene=               0
 Spin= Alpha
 Occup=    1.00000
   1    -0.00013183376403724
   2    0.00015679475592871
   3    0.0023848516583169
   4    0.00031292666138972
   5    -5.2203772613615e-08
   6    -2.8445593375129e-08
   7    0.0011710491320075
   8    -1.960539133776e-08
   9    1.9823602930397e-08
  10    0.00010147820004719
  11    -4.7541508476873e-08
  12    3.4859261149551e-09
  13    -0.00017578298503363
  14    9.5051920367699e-09
  15       1.0022697219305
  16     0.005475849021202
  17    -0.0088648199299875
  18    0.00020620791612881
  19    1.4338394684453e-07
  20    -1.0228810127358e-06
  21    0.00078702840210316
  22    6.9000389804693e-08
  23    -4.8764246762064e-07
  24    8.8988579821433e-05
  25    -3.9773717827005e-08
  26    -6.3119933932606e-09
  27    -0.0001542392155343
  28    8.4515341871933e-09
  29    0.00047667109104838
  30    0.0012635725655877
  31    8.9740914144489e-05
  32    -1.3783322151111e-06
  33    0.00036835531265193
  34    0.00047789235737315
  35     0.001264103759188
  36    8.9699193171197e-05
  37    -0.00031824654460294
  38    -0.00018537091026418
  39    0.00047811153566434
  40    0.0012642086755415
  41    8.9691855319305e-05
  42    0.00031962276324183
  43    -0.00018296594615647
  44    -0.00010389098921624
  45    9.9845173501648e-05
  46    4.5318989016578e-05
  47    -5.508421318598e-06
  48    -1.7163656882956e-05
  49    -0.00010397541633161
  50    9.9683721832529e-05
  51    4.5317922125307e-05
  52    -1.2116995133566e-05
  53    1.3356684721896e-05
  54    -0.000103846207744
  55    9.9830484208725e-05
  56    4.5323435666916e-05
  57    1.7623999532176e-05
  58    3.8137664745726e-06
 Sym= A
 Ene=               1
 Spin= Alpha
 Occup=    1.00000
   1       1.0022697144902
   2    0.0054758897404523
   3    -0.0088647972999962
   4    -0.00020626318519409
   5    2.256922951742e-07
   6    3.9267819434866e-07
   7    -0.0007870591291485
   8    1.073606851927e-07
   9    1.8114901615957e-07
  10    8.9043429706787e-05
  11    -6.3441312329821e-09
  12    1.9821229295864e-08
  13    -0.00015420289990219
  14    -1.1883452623121e-08
  15    -0.00013181045302109
  16    0.00015700916496329
  17    0.0023849806354678
  18    -0.00031278684110821
  19    -5.5165304285396e-08
  20    1.9793011922888e-07
  21    -0.0011709795605579
  22    -2.9504303364113e-08
  23    8.0168274462961e-08
  24    0.00010149690249214
  25    -1.0643641479258e-08
  26    5.8743128629815e-09
  27    -0.00017577923878261
  28    -1.3228484211703e-08
  29    -0.00010360874643975
  30    9.9857937714088e-05
  31    -4.5328575907621e-05
  32    -3.8156875999843e-06
  33    -1.7649962611891e-05
  34    -0.00010376904027244
  35    9.9843431901534e-05
  36    -4.5322477040528e-05
  37    1.7177804376705e-05
  38    5.5211383385538e-06
  39    -0.00010388122250639
  40    9.9760398509308e-05
  41    -4.5318027596871e-05
  42    -1.3363128167336e-05
  43    1.2123100968003e-05
  44    0.00047798201369624
  45    0.0012641352724214
  46    -8.9697655899006e-05
  47    0.00018534152775977
  48    0.00031825429298203
  49    0.00047741477904985
  50    0.0012639093888317
  51    -8.9717373331635e-05
  52    0.00018297131470527
  53    -0.00031965734557954
  54    0.0004773986386463
  55     0.001263881492322
  56    -8.9718024673286e-05
  57    -0.00036831622693273
  58    1.3948174204778e-06
 Sym= A
 Ene=               2
 Spin= Alpha
 Occup=    1.00000
   1    -0.0024203736353041
   2    -0.020552776830283
   3    -0.015009849570642
   4    -0.025094392356633
   5    -0.00082377317907683
   6    0.00079045618023551
   7    -0.015219098235512
   8    -0.0036857304602234
   9    -0.010491511009329
  10    -0.00070895573450457
  11     0.016466208952928
  12    -0.0019119830060879
  13    0.0047560444640429
  14    -0.00020701299573218
  15    -0.013423258005024
  16      0.18300827329292
  17      0.11030838777042
  18       0.1242840167828
  19    -0.0010107128338201
  20      0.34614063092772
  21     0.060707882752761
  22    -0.00014579001978698
  23      0.16543008590221
  24     0.019207891795644
  25     0.013878709952305
  26    -0.00047204918086654
  27    0.0025251030891163
  28    -6.3587566096057e-05
  29      0.43100925267723
  30      0.16139919730491
  31    -0.012782767735002
  32    -0.00014560969491723
  33    -0.029960623544535
  34    -0.019956565764673
  35    -0.036943145466831
  36    0.0025595403665317
  37     0.002196948434587
  38      0.01194550170265
  39    -0.020266134231704
  40    -0.037506958536292
  41    0.0025365781157568
  42    -0.0020582145864541
  43     0.011803498979707
  44    -0.021007722096153
  45    -0.024070375059967
  46    -0.0015075060524261
  47    -0.00020217676687918
  48    -0.00083719857743187
  49     0.021107809663425
  50     0.037166597913123
  51    -0.00056611718609411
  52    0.00051483687342438
  53    -0.00092029391649006
  54    -0.00016410615570615
  55    0.0021622310413525
  56    -0.0017876050273259
  57    0.00019646985618156
  58    -0.00044870351490196
 Sym= A
 Ene=               3
 Spin= Alpha
 Occup=    1.00000
   1    -0.013424865854742
   2      0.18300671505149
   3      0.11030712481909
   4     -0.12428878958276
   5     -0.34613987830884
   6    0.0010052872202423
   7    -0.060710142443935
   8     -0.16542968751103
   9    0.00014322432031603
  10    -0.011790538296713
  11    -6.3421539869192e-05
  12    -0.000472318643601
  13    -0.015372244797947
  14     0.013878645625648
  15    -0.0024197196113489
  16    -0.020553399383905
  17    -0.015010569981255
  18     0.025099616311025
  19    -0.00079120385417297
  20    0.00082268563577459
  21      0.01522156879481
  22     0.010491076988794
  23    0.0036853742832102
  24    -0.0037641968570447
  25    -0.00020679782779151
  26    -0.0019119666795143
  27    0.0029916420334573
  28     0.016466146219137
  29    -0.00016324439558463
  30    0.0021630720659815
  31    0.0017877106866263
  32    0.00044868237596761
  33    -0.00019652693594203
  34    -0.021005434363512
  35    -0.024069485897291
  36    0.0015075655325987
  37    0.00083736083053769
  38    0.0002022558424022
  39     0.021108895716966
  40     0.037166942218117
  41    0.00056620308006871
  42    0.00092016917561267
  43    -0.00051480399198073
  44     -0.01995940102792
  45     -0.03694408335749
  46    -0.0025597661189507
  47    -0.011945345408798
  48    -0.0021968807536073
  49    -0.020260944332834
  50    -0.037504504785475
  51    -0.0025365315349463
  52    -0.011803689177117
  53    0.0020584179694879
  54       0.4310093565365
  55      0.16139942266981
  56     0.012782644422384
  57     0.029960646704669
  58    0.00014544377994184
 Sym= A
 Ene=               4
 Spin= Alpha
 Occup=    1.00000
   1    -0.0024198972463115
   2    -0.020553578698847
   3    -0.015010664319674
   4    -0.025099249072638
   5    -0.00027055268082222
   6    -0.0011109429389612
   7    -0.015221400709997
   8     0.010929749882922
   9    0.0020527552701581
  10    -0.0015662686196553
  11    -0.0084123210898371
  12    0.0024835817426411
  13    0.0042606607378047
  14     -0.01415665674186
  15    -0.013425973330365
  16      0.18300716278149
  17      0.11030742948627
  18      0.12428872973793
  19     -0.29925962240628
  20     -0.17394629179442
  21     0.060710113794242
  22     -0.14319308588124
  23    -0.082841572015535
  24    -0.0036868928369527
  25    -0.0069943391065547
  26     0.015735263317038
  27    -0.010693601305171
  28    -0.011987556697243
  29    -0.020265532073306
  30    -0.037506363458944
  31    0.0025366801498836
  32    -0.009192974417399
  33    -0.0076842578072649
  34      0.43100940401208
  35      0.16139943366923
  36    -0.012782644466595
  37     0.026019513588868
  38     0.014854193632301
  39    -0.019954262655671
  40    -0.036942189067267
  41    0.0025595818666227
  42    -0.011443716850422
  43    -0.0040700492483234
  44     0.021108186576798
  45     0.037166834064357
  46    -0.00056623137416368
  47    0.00053962694656995
  48    0.00090591203794428
  49    -0.00016034247928614
  50    0.0021639015103456
  51    -0.0017875994125617
  52    0.00029025293808573
  53    0.00039471113132582
  54    -0.021008240566732
  55    -0.024070379959063
  56    -0.0015076490343837
  57    0.00082612770400379
  58    0.00024343749601122
 Sym= A
 Ene=               5
 Spin= Alpha
 Occup=    1.00000
   1     -0.01342478723993
   2       0.1830058658543
   3      0.11030666535424
   4     -0.12428733184574
   5      0.17220010644201
   6     -0.30026942618129
   7    -0.060709441021176
   8     0.082591063489084
   9     -0.14333843901431
  10     0.011812616861489
  11     0.012051203459777
  12     -0.01526320039743
  13    -0.0017448458513978
  14    -0.0068843185962834
  15    -0.0024195897644588
  16     -0.02055317279854
  17    -0.015010368746828
  18     0.025098682546747
  19    -0.00031450001854093
  20    -0.0010924083124683
  21     0.015221107855826
  22    -0.0084360647531518
  23    0.0072448468186387
  24    -3.8455639770302e-05
  25     0.014363707769482
  26    -0.00057187396739476
  27    0.0051427381724995
  28    -0.0080539229017702
  29     0.021112343086012
  30     0.037168487949578
  31    0.0005660582148524
  32    -1.4180432177952e-05
  33    0.0010541352057528
  34    -0.00016701833124217
  35    0.0021613778166485
  36    0.0017878134658837
  37    -5.4349019847066e-05
  38    0.00048680300933219
  39    -0.021005728827437
  40    -0.024069736875797
  41    0.0015075464125701
  42    -0.00059375120803189
  43    0.00062416783151268
  44    -0.020262489679519
  45    -0.037505390852115
  46    -0.0025365495733532
  47    0.0041192824968461
  48    -0.011251436176522
  49       0.4310096221119
  50      0.16139987883099
  51     0.012782687896203
  52    -0.015106248950378
  53     0.025873910046082
  54    -0.019960806936431
  55    -0.036944431996845
  56    -0.0025597912996706
  57    0.0078750916166052
  58    -0.009246564767192
 Sym= A
 Ene=               6
 Spin= Alpha
 Occup=    1.00000
   1    -0.0024197058360999
   2    -0.020552957818647
   3    -0.015010183761617
   4    -0.025097859023894
   5    0.0010936933590417
   6    0.00031861614021361
   7     -0.01522071797523
   8    -0.0072444170290771
   9    0.0084378773753801
  10    -0.0044344820424544
  11    -0.0080537925524957
  12    -0.00057171412038763
  13    0.0026047578777656
  14     0.014363836876757
  15    -0.013426339096249
  16      0.18300592510257
  17      0.11030677538611
  18      0.12428643542457
  19      0.30027330579479
  20     -0.17219394960572
  21     0.060709015231736
  22      0.14334029797392
  23    -0.082588265554643
  24    -0.0043950044437648
  25    -0.0068842658421248
  26    -0.015263381694041
  27     -0.01110224369694
  28     0.012051294813342
  29    -0.019956020753606
  30    -0.036942611134536
  31    0.0025596010850583
  32    0.0092466792140815
  33    -0.0078753444678869
  34    -0.020268117926438
  35     -0.03750762580686
  36    0.0025367168451342
  37     0.011251117360151
  38    -0.0041193466184519
  39      0.43100967621615
  40       0.1613999217987
  41    -0.012782705975555
  42    -0.025873789690405
  43     0.015106431601098
  44    -0.00016405689700265
  45    0.0021621319078199
  46    -0.001787685411897
  47    -0.00048691961477973
  48    5.4197096580468e-05
  49    -0.021008181494278
  50    -0.024070552143846
  51    -0.0015076015269298
  52    -0.00062401312358744
  53    0.00059366741321329
  54     0.021111333176205
  55     0.037168235179927
  56    -0.00056608231582944
  57    -0.0010542119068378
  58    1.4297766560282e-05
 Sym= A
 Ene=               7
 Spin= Alpha
 Occup=    1.00000
   1    -0.013426133278608
   2      0.18300590698073
   3      0.11030665945955
   4     -0.12428812655904
   5      0.17394168380566
   6      0.29926351249778
   7    -0.060709837687868
   8     0.082839507317387
   9      0.14319484235156
  10     0.011104159882506
  11    -0.011987639407701
  12     0.015735474413409
  13    -0.0021538971543523
  14    -0.0069943936369431
  15    -0.0024195786467935
  16     -0.02055227312243
  17    -0.015009866423798
  18     0.025099892706016
  19    0.0011059453732846
  20    0.00027217416250878
  21     0.015221697455459
  22    -0.0020549606468687
  23    -0.010929048270222
  24    -0.0029066292473521
  25    -0.014156780413768
  26    0.0024838319929532
  27    0.0034867165269953
  28    -0.0084123048299327
  29    -0.021006275991775
  30    -0.024070046633271
  31    0.0015075895139477
  32    -0.00024358850802608
  33    -0.00082630756804447
  34     0.021111938750547
  35     0.037168176712225
  36    0.00056609839645407
  37    -0.00090574938453475
  38    -0.00053940489897731
  39    -0.00016354619571256
  40     0.002162691810714
  41    0.0017877188179773
  42    -0.00039460959814992
  43    -0.00029035575742499
  44      0.43100960927299
  45       0.1613998553379
  46     0.012782660821642
  47    -0.014854321035616
  48    -0.026019379594554
  49    -0.019959714743496
  50    -0.036944136075465
  51    -0.0025597719928433
  52    0.0040701745762979
  53     0.011443389745444
  54    -0.020262685015293
  55     -0.03750527491397
  56    -0.0025365781561901
  57    0.0076843767739174
  58    0.0091930949453242
 Sym= A
 Ene=               8
 Spin= Alpha
 Occup=    1.00000
   1     0.010916829971995
   2     -0.19897608301531
   3     -0.14934111728936
   4     -0.36538582130231
   5    3.8876503524398e-07
   6    -3.0184409329925e-07
   7     -0.16966429451449
   8    1.3004771492162e-07
   9    -2.3246741639222e-07
  10     0.016010331471855
  11    1.5949570664066e-07
  12    -3.6831328386661e-08
  13    -0.027730643887491
  14    2.2926419124463e-08
  15      0.01091665384494
  16     -0.19897348960363
  17     -0.14933952018733
  18      0.36538708507383
  19    8.4360782490013e-07
  20    3.0803242503895e-06
  21      0.16966487402385
  22    3.908326211967e-07
  23    1.4773101767879e-06
  24     0.016010519762714
  25    1.3860166536139e-07
  26    -4.7670914227273e-08
  27    -0.027730710113987
  28    1.5005455499141e-08
  29     0.022201539357288
  30     0.037321275970358
  31    0.0092165291336341
  32    2.243549906885e-06
  33     0.001395799158549
  34     0.022196876246418
  35     0.037319207996566
  36    0.0092166888143751
  37    -0.0012101390456876
  38    -0.00069603106585291
  39       0.0221981084814
  40     0.037319702442706
  41    0.0092166453130101
  42     0.001207878075015
  43    -0.00069982078289348
  44     0.022196902758984
  45      0.03731942101557
  46    -0.0092166759034342
  47    0.00069615115003531
  48    0.0012101742420681
  49     0.022197744554468
  50     0.037320184173596
  51    -0.009216649577968
  52    0.00069998171466506
  53    -0.0012079562858883
  54     0.022196896947472
  55     0.037319667924308
  56    -0.0092166849274112
  57    -0.0013961408638274
  58    -2.2332869382381e-06
 Sym= A
 Ene=               9
 Spin= Alpha
 Occup=    0.00000
   1      -1.0320376798911
   2      -2.0263181735098
   3       6.5757694914492
   4     0.095980670117791
   5    -0.026987577484101
   6     0.079445684246447
   7      0.38266128522162
   8    -0.041270213465984
   9    -0.097847326401505
  10    -0.097615505220554
  11    -0.082132937794787
  12     0.094102313786552
  13     0.016441254609632
  14     0.035954988218139
  15      0.10330235460614
  16       0.1161523604471
  17      -2.2005622911249
  18      0.22823356684254
  19    -0.00086075542297937
  20      0.01426822875096
  21        1.231021431917
  22    -0.0040917550841358
  23     0.059965459539691
  24     0.054628127178374
  25    -0.018268848213285
  26    -0.0068740314005644
  27    -0.075298486208386
  28    0.0049205833257762
  29      0.10811303716778
  30    -0.044858762002339
  31    -0.048350544010663
  32    0.0053212478814418
  33    0.0049681822801912
  34      0.13115121376073
  35    -0.025519865705185
  36    -0.052462280638029
  37    -0.0032990275657521
  38    -0.0018763357262158
  39      0.12829085846246
  40    -0.010845924556505
  41    -0.056499065149282
  42    0.0032317758123619
  43    -0.0074608322897138
  44     -0.65217245307254
  45     -0.84140352490686
  46    -0.020978072532783
  47     0.032687059663742
  48     0.091210339303052
  49      -0.5610203825935
  50     -0.90901628673048
  51    -0.0080929336228033
  52      0.01683825862051
  53    -0.025249803208926
  54     -0.68918953721348
  55     -0.91673376756736
  56    -0.031007932149712
  57    -0.096505731622659
  58     0.019787709419066
 Sym= A
 Ene=              10
 Spin= Alpha
 Occup=    0.00000
   1     0.098057300142695
   2      0.11869990986747
   3      -1.8241936077383
   4     -0.17739919329813
   5     0.019759406841953
   6     0.010785535189725
   7     -0.98296122886853
   8     0.067988833319317
   9     0.037898703455042
  10     0.034689087668722
  11     0.011339829885863
  12      0.01348728976076
  13    -0.060658385353134
  14     0.033896931454192
  15     -0.98784486868715
  16      -1.9419667664468
  17       6.2518697513438
  18     -0.16215466046064
  19      0.10402983285906
  20     0.053344116622666
  21     0.068963568914349
  22    -0.051115326873232
  23    -0.073279552857315
  24     0.058694462525373
  25     0.051391901584848
  26     -0.13614528028721
  27     0.021932056111753
  28      0.16198386686527
  29     -0.67780023690452
  30     -0.91187910257434
  31    0.0070659134433946
  32      0.01586378380989
  33      0.10982718773087
  34     -0.53554235883295
  35     -0.96601939030131
  36    -0.0073583440764114
  37    -0.017901693181327
  38    -0.0062017974832266
  39     -0.72391876335366
  40     -0.95270496084473
  41    0.0075936085964339
  42      0.12211094019464
  43    -0.047047684854941
  44     0.095534619515596
  45    -0.0066404169052123
  46     0.043236125412695
  47    -0.0071477388944878
  48    0.0040339041355125
  49      0.11687661535648
  50    0.0045202852832575
  51     0.047617077241803
  52    -0.0017996773131914
  53    0.00085291161578932
  54       0.1228879213725
  55     0.038583118628336
  56     0.056857934283462
  57    -0.0054523685910291
  58    -0.003608914069196
 Sym= A
 Ene=              11
 Spin= Alpha
 Occup=    0.00000
   1    -0.018325084176512
   2    -0.035354292132439
   3      0.13108198165562
   4    -0.019652932530094
   5    -0.086679213952564
   6     -0.39249525968128
   7      0.11132843577984
   8    -0.017745437482494
   9       2.8231950896407
  10      -0.1747186643283
  11     -0.81031998524365
  12      0.27538800065658
  13    -0.095926120522065
  14     0.044893302256785
  15    0.0033748598399081
  16    0.0036742572729783
  17     -0.10596973878059
  18    0.0095121234185417
  19    0.0064566502646861
  20    -0.0070995947438442
  21     0.067975382019948
  22      0.11747223032277
  23     -0.71899025128625
  24    -0.0062230759219276
  25     -0.06361019858165
  26    -0.015532364903765
  27    -0.007396720129747
  28      0.01712231900541
  29      0.13621381870637
  30      0.12928969790311
  31     0.059718366470315
  32    0.0016919566860984
  33    -0.029715100983492
  34    -0.035692512139664
  35     0.040114589885416
  36    -0.048785448266677
  37    -0.032901639574659
  38     0.051993285594872
  39    -0.089368842883322
  40     -0.19882179223452
  41    -0.014934452819125
  42     0.057687469455748
  43     0.039657616415029
  44     -0.77997504672875
  45       -1.270524819967
  46    -0.015021516960286
  47      0.17334747969359
  48     0.089729863944775
  49      0.87801811071693
  50       1.2933633469951
  51     0.027550140366059
  52     -0.25040432758205
  53      0.10313518848463
  54     -0.11317754685614
  55    -0.0062877922937201
  56    -0.032319830464175
  57    -0.045404809514886
  58     -0.27062212037903
 Sym= A
 Ene=              12
 Spin= Alpha
 Occup=    0.00000
   1    0.0024180909375475
   2    0.0047010448331335
   3    -0.018205521427032
   4    0.0031571274058999
   5     -0.38228439809507
   6     0.095380527772277
   7    -0.0063833196295052
   8       2.7914507309589
   9     0.026806356785921
  10      0.22855743777406
  11    -0.050080479343585
  12      0.22561518792511
  13      0.13964136127247
  14     -0.83038454335484
  15    -0.0010010142554234
  16    -0.002085383294546
  17    0.0082151056708602
  18    0.0014105546630277
  19    -0.0029820614617926
  20    -0.0062351769720624
  21    -0.0048920725583996
  22      -0.7034681694521
  23     -0.11616765891142
  24    -0.012243349863819
  25    -0.017104456587905
  26    0.0063315301347757
  27    -0.0083727640082611
  28    -0.069010018231847
  29      0.02973213410926
  30      0.13671826785077
  31    -0.018657825025165
  32     0.071459033498183
  33     -0.01576787891708
  34     -0.12733674176894
  35     -0.18424987696219
  36      -0.0439463098251
  37    -0.011267996345425
  38    -0.049434546151802
  39     0.096167582628786
  40     0.049468665173398
  41     0.063298569156886
  42    0.00079203856513223
  43     0.039156916265674
  44     -0.58171554337402
  45     -0.74707508853801
  46    -0.035033920958984
  47     -0.14216608876824
  48      0.26305254559452
  49     -0.36761890254943
  50     -0.71545730341405
  51     0.017025448327081
  52     -0.15443254640322
  53     -0.16400406610262
  54      0.95746712682455
  55       1.4667981354231
  56     0.022492195672055
  57      0.22268767278403
  58     0.038903445699198
 Sym= A
 Ene=              13
 Spin= Alpha
 Occup=    0.00000
   1     -0.22736005930221
   2     -0.42691736749057
   3       1.8510976976342
   4     -0.60333038388105
   5    0.0046736340199741
   6    -0.039957617877196
   7       3.4481958535145
   8     0.045136271157609
   9    -0.056406072595651
  10     -0.12636749336604
  11     0.091334058496703
  12    -0.084037824193562
  13      0.28444572784389
  14    -0.013602900134135
  15     0.053475646422409
  16     0.029478938295672
  17      -2.6495452399228
  18         0.28770908004
  19    -0.0017833582277269
  20    -0.008944927733973
  21       1.7664494198251
  22    -0.012448732699276
  23    -0.010716543968677
  24     0.053158573506747
  25     0.015230574470906
  26     0.006708862727335
  27     -0.10014825798552
  28    -0.0014555596808309
  29     0.076990833605454
  30     -0.29596212337764
  31    -0.027501698029422
  32    -0.0022466811263136
  33     0.031035230101186
  34     0.067539906703332
  35     -0.30996754664221
  36    -0.019480695760459
  37    -0.025188666489524
  38    -0.016431590402024
  39     0.076058672269462
  40     -0.30462215228002
  41    -0.019252921658191
  42     0.023660086527023
  43    -0.012955131091823
  44      0.15997910172936
  45      0.52330818784115
  46     -0.17016161404936
  47    -0.055159731187696
  48    -0.099857717588796
  49     0.019398517668523
  50       0.4566907120637
  51     -0.18322112857345
  52    -0.024739925909416
  53     0.044150026357091
  54      0.13203928132705
  55      0.52798791304675
  56     -0.16889927585647
  57     0.095856587174632
  58    -0.0041207993470311
 Sym= A
 Ene=              14
 Spin= Alpha
 Occup=    0.00000
   1    -0.0052474343797259
   2    -0.0054015972456277
   3      0.18177630054307
   4     0.016588672505693
   5    -0.0078329802606594
   6    0.0065967065783442
   7      0.11854720049732
   8     -0.72315966280732
   9     0.096306517783119
  10     -0.01092009384293
  11    -0.014709745380318
  12     0.015611903070693
  13    0.00036984999718798
  14     0.062956668061213
  15     0.024517412740211
  16     0.046930799189638
  17     -0.18336061855278
  18    -0.038409936760745
  19     -0.38929007688155
  20    -0.099237718169411
  21      0.21126276192179
  22       2.8229627891456
  23     0.066514124648395
  24     -0.16404228035907
  25    -0.018565397397328
  26     -0.28593027992558
  27      -0.1056918325357
  28      0.80682732785258
  29      0.08317679279716
  30    -0.052572450792083
  31    -0.038076775149306
  32     -0.26807175966526
  33    -0.036730263162025
  34      0.79432274148251
  35       1.2778304632158
  36    -0.022319929203732
  37     0.095875565271903
  38      0.16626617392697
  39     -0.86963351282013
  40      -1.2858612816421
  41     0.023668458904429
  42      0.09999673558406
  43     -0.25618864907351
  44     0.037283462656325
  45    -0.025442776844888
  46    -0.050731919734441
  47     0.050093209974118
  48    -0.033871996350588
  49     0.084300148810164
  50      0.20630850961179
  51    -0.013548206591602
  52     0.040593938821302
  53     0.058400645584854
  54     -0.13917491488557
  55     -0.12490705519326
  56     0.058276952570814
  57    -0.029101407623099
  58    0.0038920617246405
 Sym= A
 Ene=              15
 Spin= Alpha
 Occup=    0.00000
   1    0.0027260807068397
   2    0.0043105303514409
   3    -0.060643792811909
   4    -0.0022903481549418
   5    -0.0079551888784017
   6    -0.004977099717706
   7    -0.039593128790023
   8     -0.10149572612103
   9     -0.71359966006468
  10    -0.013362913875956
  11     0.067925838676567
  12    -0.0095350759689683
  13    -0.0075024840340721
  14     0.012296099183872
  15    -0.0074783217703318
  16    -0.014226170652689
  17     0.060248520589129
  18     0.016883560727733
  19     0.091379946543311
  20     -0.38398133622226
  21    -0.073561033296093
  22    -0.057405614640926
  23       2.8083801017217
  24      0.24322793295771
  25      0.82622331006806
  26     -0.18643699143611
  27      0.13233234199577
  28    0.0086556380203219
  29     -0.96313272799553
  30      -1.4664759163206
  31     0.028987380721587
  32     0.042271385036817