[Molden Format]
made by pyscf v[2.0.1]
[Atoms] (AU)
C   1   6     0.00000000000000     0.00000000000000     0.00000000000000
C   2   6     2.89040035821050     0.00000000000000     0.00000000000000
H   3   1     3.65380793584534     0.00000000000000     1.93990930394644
H   4   1     3.65380793584534    -1.68001073825540    -0.96995465197322
H   5   1     3.65380793584534     1.68001073825540    -0.96995465197322
H   6   1    -0.76340757763484    -1.84496338453985    -0.59946494246552
H   7   1    -0.76340757763484     0.40332982341661     1.89751763129639
H   8   1    -0.76340757763484     1.44163356112325    -1.29805268883087
[GTO]
1 0
 s    8 1.00
                  6665  0.00069158396281299
                  1000  0.0053257961529341
                   228   0.027060721042034
                 64.71    0.10165684614077
                 21.06     0.2745748236174
                 7.495    0.44829431892377
                 2.797    0.28490261071525
                0.5215   0.015194859206082
 s    8 1.00
                  6665  -0.00029326965268655
                  1000  -0.0023180354739745
                   228  -0.011499786038565
                 64.71  -0.046826727009787
                 21.06   -0.12846616875047
                 7.495   -0.30126627246289
                 2.797   -0.25563070233011
                0.5215      1.093793361012
 s    1 1.00
                0.1596                   1
 p    3 1.00
                 9.439   0.056979251590039
                 2.002    0.31320721150073
                0.5456    0.76037674173753
 p    1 1.00
                0.1517                   1
 d    1 1.00
                  0.55                   1

2 0
 s    8 1.00
                  6665  0.00069158396281299
                  1000  0.0053257961529341
                   228   0.027060721042034
                 64.71    0.10165684614077
                 21.06     0.2745748236174
                 7.495    0.44829431892377
                 2.797    0.28490261071525
                0.5215   0.015194859206082
 s    8 1.00
                  6665  -0.00029326965268655
                  1000  -0.0023180354739745
                   228  -0.011499786038565
                 64.71  -0.046826727009787
                 21.06   -0.12846616875047
                 7.495   -0.30126627246289
                 2.797   -0.25563070233011
                0.5215      1.093793361012
 s    1 1.00
                0.1596                   1
 p    3 1.00
                 9.439   0.056979251590039
                 2.002    0.31320721150073
                0.5456    0.76037674173753
 p    1 1.00
                0.1517                   1
 d    1 1.00
                  0.55                   1

3 0
 s    3 1.00
                 13.01   0.033498726389998
                 1.962    0.23480080117413
                0.4446     0.8136829578829
 s    1 1.00
                 0.122                   1
 p    1 1.00
                 0.727                   1

4 0
 s    3 1.00
                 13.01   0.033498726389998
                 1.962    0.23480080117413
                0.4446     0.8136829578829
 s    1 1.00
                 0.122                   1
 p    1 1.00
                 0.727                   1

5 0
 s    3 1.00
                 13.01   0.033498726389998
                 1.962    0.23480080117413
                0.4446     0.8136829578829
 s    1 1.00
                 0.122                   1
 p    1 1.00
                 0.727                   1

6 0
 s    3 1.00
                 13.01   0.033498726389998
                 1.962    0.23480080117413
                0.4446     0.8136829578829
 s    1 1.00
                 0.122                   1
 p    1 1.00
                 0.727                   1

7 0
 s    3 1.00
                 13.01   0.033498726389998
                 1.962    0.23480080117413
                0.4446     0.8136829578829
 s    1 1.00
                 0.122                   1
 p    1 1.00
                 0.727                   1

8 0
 s    3 1.00
                 13.01   0.033498726389998
                 1.962    0.23480080117413
                0.4446     0.8136829578829
 s    1 1.00
                 0.122                   1
 p    1 1.00
                 0.727                   1

[5d]
[7f]
[9g]

[MO]
 Sym= A
 Ene=               0
 Spin= Alpha
 Occup=    1.00000
   1    -0.00013845809068487
   2    0.00014524523646556
   3    0.0024386651038681
   4    0.00031283159151668
   5    -2.8335854017574e-07
   6    2.1132207004638e-08
   7    0.0011554539533758
   8    -1.1056014621096e-07
   9    2.2708257740298e-08
  10    0.00010492646483666
  11    -1.9837079839321e-08
  12    1.383133944814e-08
  13    -0.00018175018912655
  14    -1.6208089457639e-08
  15       1.0022725149829
  16    0.0054839553712985
  17    -0.0088770674525041
  18    0.00019918216803243
  19    -5.8521836454154e-07
  20    -3.9846650814263e-07
  21    0.0007820620560617
  22    -2.7054816323028e-07
  23    -1.9082145155397e-07
  24    8.8997350217526e-05
  25    -1.6960363790282e-08
  26    2.9711105276915e-08
  27    -0.00015418912231442
  28    -9.8290981353729e-09
  29    0.00047747333190752
  30    0.0012691865223799
  31    9.0301143834184e-05
  32    -7.9089262909866e-07
  33    0.00036710251106903
  34    0.00047841728425368
  35     0.001269589776311
  36    9.0268437202921e-05
  37    -0.00031749110936844
  38    -0.00018419846284436
  39    0.00047757094002272
  40    0.0012692499045285
  41    9.029811853606e-05
  42    0.00031829403643211
  43    -0.00018289715112753
  44    -0.00011094708983046
  45    8.3053983297603e-05
  46    4.2493790263185e-05
  47    1.4990907970911e-05
  48    7.2521091761681e-06
  49    -0.00011112485096779
  50    8.3054417344387e-05
  51    4.2485541903122e-05
  52    -1.2235068260861e-06
  53    -1.6590361903193e-05
  54    -0.00011131196679046
  55    8.2944051980635e-05
  56    4.2478946383578e-05
  57    -1.3759753342472e-05
  58    9.3402862435847e-06
 Sym= A
 Ene=               1
 Spin= Alpha
 Occup=    1.00000
   1       1.0022725198583
   2    0.0054839258145705
   3    -0.008877088415805
   4    -0.00019922614482956
   5    9.325694646684e-07
   6    1.9596488049043e-08
   7    -0.00078207883152248
   8    4.4649931478689e-07
   9    6.7895600229587e-09
  10    8.9045406426701e-05
  11    3.3994909815729e-09
  12    -3.7515094712976e-08
  13    -0.00015417284940042
  14    -3.4466395943281e-08
  15    -0.00013846506863751
  16    0.00014504609179834
  17    0.0024385391662018
  18    -0.00031287018455258
  19    5.4388236338421e-08
  20    8.6123803704435e-08
  21    -0.0011554744163339
  22    -1.1288685757309e-08
  23    3.5242993961586e-08
  24    0.00010493792060287
  25    2.8033003808537e-09
  26    -1.439625522596e-09
  27    -0.00018174349748259
  28    -4.1804199754255e-08
  29    -0.00011116358910215
  30    8.3035101516345e-05
  31    -4.2485453475039e-05
  32    -2.2599889531633e-06
  33    -1.6475144031971e-05
  34    -0.00011125960621865
  35    8.3040131300838e-05
  36    -4.2479296260207e-05
  37    1.5389355652017e-05
  38    6.2765134815367e-06
  39    -0.00011129132139195
  40    8.2921716064644e-05
  41    -4.2481555285639e-05
  42    -1.3134862297851e-05
  43    1.0197747979533e-05
  44    0.00047704857222839
  45    0.0012690103015922
  46    -9.0316366426115e-05
  47    -0.00034939283728998
  48    -0.00011272061701559
  49    0.00047799796952223
  50    0.0012694156038669
  51    -9.028384832522e-05
  52    7.7103253021153e-05
  53    0.00035888903405237
  54    0.00047840973587238
  55    0.0012696051887054
  56    -9.0270105131616e-05
  57    0.0002722723929945
  58    -0.00024616928077172
 Sym= A
 Ene=               2
 Spin= Alpha
 Occup=    1.00000
   1    -0.0023916973811758
   2    -0.020565795930239
   3    -0.015432426344846
   4    -0.025085005534253
   5    -0.00048300972400069
   6    8.2146172024265e-05
   7    -0.015685832431715
   8    -0.0022221963021139
   9    -0.013947405346617
  10    -0.0020721421506607
  11     0.016319154388828
  12    -0.0011297648571309
  13    0.0040166169258344
  14    -0.00012166126448767
  15    -0.013490934992375
  16      0.18286754104454
  17      0.11086151717872
  18      0.12418639635431
  19    -0.00059234136675048
  20      0.34637733085062
  21     0.060336756611135
  22    -7.5598193730971e-05
  23      0.16684517441278
  24     0.018966918315887
  25     0.013738242527645
  26    -0.00028077529225829
  27    0.0022983168462979
  28    -3.818771221424e-05
  29      0.43096558056591
  30      0.16114403787062
  31    -0.012703720948444
  32    -8.6051971568289e-05
  33    -0.030039618020829
  34     -0.02004181803142
  35    -0.036801525060457
  36    0.0025497274330437
  37    0.0021131134281055
  38      0.01190410380889
  39    -0.020218033430767
  40     -0.03713187719499
  41    0.0025360147658052
  42    -0.0020314557336726
  43     0.011819482758851
  44    0.0075043290004858
  45     0.013442637796436
  46    -0.0014565456842043
  47    -0.00010307024475358
  48    -0.00031951477059465
  49    -0.023667551711854
  50     -0.02699335680179
  51    -0.0012440477549666
  52    -8.3105966162129e-05
  53    -0.00080665450370996
  54     0.016396641609684
  55     0.028355328537047
  56    -0.00091881343801936
  57    0.0004872172398031
  58    -0.00053999844888447
 Sym= A
 Ene=               3
 Spin= Alpha
 Occup=    1.00000
   1    -0.013490002897106
   2      0.18286886026399
   3       0.1108626183967
   4     -0.12418181864663
   5     -0.32961147155947
   6     -0.10646344695723
   7    -0.060334601182727
   8     -0.15870454261801
   9    -0.051481525139476
  10    -0.0087098953520331
  11    0.0042087612063898
  12     0.010103618559266
  13    -0.013680487091633
  14     0.013077849757875
  15    -0.002392375570955
  16    -0.020564391928444
  17    -0.015431249065452
  18     0.025080472472517
  19    -0.00022639179708095
  20    0.00043640004569958
  21     0.015683694385753
  22     0.012578771701871
  23    0.0064242146564647
  24    -0.0029822476849708
  25    0.0049268275404029
  26    -0.00078837033702784
  27    0.0034915727142019
  28     0.015558258448523
  29    0.0075049324261408
  30     0.013442066102094
  31    0.0014563887701489
  32    0.00027205622344192
  33    0.00019668232515295
  34    -0.023670043345098
  35     -0.02699450316216
  36    0.0012440061964209
  37    0.00074134493752471
  38    0.00032827260600844
  39     0.016396112663858
  40     0.028355407632417
  41    0.00091873406530195
  42     0.000664238282889
  43    -0.00029648171203839
  44      0.43096555688709
  45      0.16114394556977
  46     0.012703835226619
  47     0.028542657193739
  48    0.0093648886142463
  49    -0.020035369496688
  50    -0.036799033690877
  51    -0.0025493848471895
  52    -0.010668731146445
  53    -0.0056885358919589
  54    -0.020227051752149
  55     -0.03713594274249
  56    -0.0025361995778757
  57    -0.011868310228473
  58    -0.0017206012690041
 Sym= A
 Ene=               4
 Spin= Alpha
 Occup=    1.00000
   1    -0.0023914631665686
   2    -0.020566682754128
   3    -0.015433071363512
   4    -0.025086323366155
   5    0.00030815394240367
   6    0.00037336407842321
   7    -0.015686418860862
   8    -0.010969908194756
   9    0.0088963375030973
  10    -0.0031973532856333
  11    -0.0080540778227879
  12    0.00037980740054574
  13    0.0033667931421021
  14      0.01419385770595
  15    -0.013490979323665
  16      0.18286562615967
  17      0.11086023880972
  18      0.12418721406925
  19      0.30026871633031
  20     -0.17267600979712
  21     0.060337117138914
  22      0.14453058834793
  23    -0.083357093319658
  24    -0.0040742202312044
  25    -0.0068358820982973
  26    -0.015080069098354
  27    -0.011004603593513
  28       0.0119170126389
  29    -0.020042508401968
  30    -0.036801321296341
  31    0.0025497935445071
  32    0.0092527337805018
  33    -0.0077819441091823
  34    -0.020219707753656
  35    -0.037132714594007
  36    0.0025360910822456
  37     0.011251617660835
  38    -0.0041505249958095
  39      0.43096593229869
  40      0.16114462565894
  41     -0.01270370261691
  42    -0.025971990984607
  43     0.015094311210663
  44     0.016401428988737
  45     0.028357601951551
  46    -0.00091868716327353
  47    -0.0007110360546804
  48    -0.00015194293759326
  49    0.0075002274933965
  50     0.013440953802475
  51    -0.0014567198103344
  52    -0.00022523623176294
  53    0.00024925780071281
  54    -0.023668280102493
  55    -0.026993625607656
  56    -0.0012441041056549
  57    -0.0006571150805083
  58    0.00047513120535861
 Sym= A
 Ene=               5
 Spin= Alpha
 Occup=    1.00000
   1    -0.013492111948244
   2      0.18286729498591
   3      0.11086124539174
   4     -0.12418859444107
   5     0.072606628722331
   6      0.33868188518338
   7    -0.060337799349841
   8     0.034768314682894
   9      0.16318219315314
  10      0.01755240013462
  11    -0.013430164107969
  12    0.0074043508436137
  13    0.0014814601971096
  14    -0.0028939320652409
  15    -0.0023917505759333
  16    -0.020566218514813
  17    -0.015432823977285
  18     0.025087115306585
  19    0.00049399805293888
  20    -2.4339509968962e-05
  21     0.015686837276163
  22    -0.00072452038564025
  23    -0.014106639701308
  24    -0.0024861841195106
  25    -0.015937265232677
  26    0.0011188279989935
  27    0.0037773979636526
  28    -0.0035123012142036
  29    -0.023670535170111
  30    -0.026994350378074
  31    0.0012442007421003
  32    -8.6291333775865e-05
  33    -0.00080615105308984
  34      0.01639620581428
  35     0.028355683399636
  36    0.00091890735775922
  37    -0.00058880238387063
  38    -0.0004270784698719
  39    0.0075092245157594
  40     0.013444097553957
  41    0.0014564143168299
  42    3.4082344475416e-05
  43    -0.00033383601690391
  44    -0.020225743033161
  45    -0.037135017371575
  46    -0.0025363326019744
  47    0.0044441750433207
  48     0.011138530756847
  49      0.43096582335399
  50       0.1611443489814
  51     0.012703662810109
  52    -0.0061610703490285
  53    -0.029401160857738
  54    -0.020032526706819
  55    -0.036797813964877
  56    -0.0025494564767196
  57    0.00040778493586627
  58     0.012083778478779
 Sym= A
 Ene=               6
 Spin= Alpha
 Occup=    1.00000
   1    -0.0023914370246236
   2    -0.020564650062653
   3     -0.01543178356602
   4    -0.025086558541796
   5    0.00017151432973996
   6    -0.00045547361520418
   7    -0.015686569319461
   8     0.013190454818569
   9     0.005051144917917
  10    -0.0015023007165888
  11    -0.0082651414404873
  12    0.00075009770090337
  13     0.004345474091459
  14    -0.014072007462516
  15    -0.013493039374418
  16      0.18286667609384
  17      0.11086094772042
  18      0.12418697495766
  19     -0.29967518716483
  20     -0.17370266744244
  21     0.060337050261204
  22     -0.14445428363739
  23    -0.083488712337435
  24    -0.0036531285288665
  25    -0.0069024165338291
  26     0.015360780646468
  27    -0.010761378167606
  28    -0.011878620205569
  29    -0.020219405304418
  30    -0.037132588045724
  31    0.0025360747453481
  32    -0.0092202393169984
  33    -0.0076689683661925
  34      0.43096586325907
  35      0.16114450287818
  36    -0.012703704126271
  37     0.026058091778104
  38     0.014945246067114
  39    -0.020041370670342
  40     -0.03680114868289
  41     0.002549740351036
  42    -0.011365824195773
  43    -0.0041220667138689
  44    -0.023668484749194
  45    -0.026993955229141
  46    -0.0012441075223835
  47    0.00074012139182874
  48    0.00033145966613781
  49     0.016401292246912
  50     0.028357245842988
  51    -0.00091868804011959
  52    0.00022399343696785
  53    0.00069165714220158
  54    0.0075038082415616
  55     0.013442169236622
  56    -0.0014565916702149
  57    0.00032828559783941
  58    7.0609827078536e-05
 Sym= A
 Ene=               7
 Spin= Alpha
 Occup=    1.00000
   1    -0.013492876121581
   2      0.18286534366004
   3      0.11086007804619
   4     -0.12418715827703
   5      0.25700473491917
   6     -0.23222187168822
   7    -0.060337116916456
   8      0.12393606528129
   9     -0.11170235620328
  10    0.0023968771992622
  11     0.009221597694328
  12    -0.017508075682649
  13    -0.0072684544146633
  14    -0.010183790370201
  15    -0.0023914163656995
  16    -0.020565247388242
  17    -0.015432195380606
  18     0.025087100178434
  19    -0.00026499464743593
  20    -0.000410835417376
  21     0.015686797242992
  22    -0.011853008269218
  23    0.0076831529737092
  24    -0.0013033548566108
  25     0.011010648343365
  26    -0.0003306019749978
  27    0.0044602367114772
  28    -0.012045847547854
  29     0.016400951314743
  30     0.028357720355439
  31    0.00091873848717211
  32    -7.5365971917579e-05
  33    0.00072320025889323
  34    0.0075052573810038
  35      0.01344217660826
  36    0.0014565386311394
  37    -0.00030633336559299
  38    0.00013739198539603
  39     -0.02366996652087
  40    -0.026994372828875
  41    0.0012441655272759
  42    -0.00065497302280366
  43    0.0004779942874742
  44    -0.020033942500827
  45    -0.036797861272195
  46    -0.0025494956802644
  47     0.010260807821794
  48    -0.0063951601160915
  49    -0.020228850427468
  50    -0.037136431490263
  51    -0.0025364072241937
  52    0.0074242454933267
  53    -0.0094178330022141
  54      0.43096609480618
  55      0.16114486172611
  56     0.012703695844224
  57    -0.022381568501097
  58     0.020036147820395
 Sym= A
 Ene=               8
 Spin= Alpha
 Occup=    1.00000
   1     0.010894944990475
   2     -0.19907006958697
   3     -0.14918631707403
   4     -0.36530759038721
   5    -4.8397652841944e-06
   6    -1.7223492957014e-06
   7     -0.16967823187843
   8    -2.3047066239672e-06
   9    -8.789668047323e-07
  10     0.016067671489123
  11    1.1672527990479e-07
  12    1.4054635638879e-07
  13    -0.027830452127069
  14    1.5489770594636e-07
  15     0.010895232185115
  16     -0.19907172107306
  17     -0.14918734521272
  18      0.36530678546463
  19    -7.8438625939978e-07
  20    1.0434304780656e-06
  21      0.16967786954959
  22    -1.9188691305666e-07
  23    6.0069993991659e-07
  24     0.016067844101967
  25    1.2089913136851e-07
  26    2.6639441266392e-08
  27    -0.027830239831524
  28    1.9739729597295e-07
  29      0.02221325326524
  30     0.037264323592817
  31    0.0092357114281161
  32    1.0315651136393e-06
  33    0.0014124209802102
  34     0.022212013003129
  35     0.037263371144178
  36     0.009235734454022
  37    -0.0012237567238103
  38    -0.00070527743770513
  39     0.022211429056839
  40       0.0372636694473
  41    0.0092357690010919
  42    0.0012227641130267
  43    -0.00070715836930864
  44     0.022217715842008
  45     0.037265894837764
  46    -0.0092355583870838
  47    -0.0013426768400368
  48    -0.00043737265595623
  49     0.022210888789826
  50     0.037262881466912
  51    -0.0092357865055697
  52    0.00029250517702053
  53    0.0013818334326862
  54     0.022211262241831
  55     0.037263175350771
  56    -0.0092357786284299
  57    0.0010502644582152
  58    -0.0009444334917294
 Sym= A
 Ene=               9
 Spin= Alpha
 Occup=    0.00000
   1      -1.0603339965441
   2      -2.0779250978423
   3       6.8393811534982
   4    -0.017126442491927
   5    -0.010704787028487
   6    -0.010029995254009
   7      0.99287638631135
   8    -0.002976353006516
   9     -0.06807200795653
  10     -0.11360114174667
  11     0.018618317315293
  12    -0.0064805116719976
  13     0.057706422957515
  14    -0.0055062067293075
  15      0.11580235397137
  16      0.12684207312282
  17      -2.6872156303506
  18       0.2722522237772
  19    0.00087927417655691
  20    0.0018916940555072
  21       1.5231879345512
  22    -0.0014090252161323
  23     0.017510970158862
  24     0.056845250224636
  25    0.00094372005175782
  26    0.0007029669360797
  27     -0.08756715935401
  28    -0.0023202776021956
  29      0.13726355439123
  30    -0.074026155377961
  31    -0.060208438495242
  32    0.0019223083944002
  33     0.010209218770633
  34      0.14356838732658
  35    -0.069271881079484
  36    -0.058924867682193
  37    -0.0081685711904098
  38    -0.0026728491901347
  39      0.14546847085024
  40    -0.066042731793069
  41    -0.059287193902047
  42    0.0053569298198089
  43    -0.0052072543468503
  44     -0.63937437794367
  45     -0.80724029305318
  46    -0.062541120773317
  47    -0.064932646461786
  48    -0.023340274738986
  49     -0.56210851770531
  50     -0.75479079973904
  51    -0.042128948203747
  52    0.0025788362901161
  53     0.043896114520188
  54     -0.63124148819144
  55      -0.8160518842084
  56    -0.054687169859164
  57     0.042648226323778
  58    -0.050362752145339
 Sym= A
 Ene=              10
 Spin= Alpha
 Occup=    0.00000
   1      0.10808218501544
   2      0.13211833666863
   3      -2.0385216127687
   4     -0.18781566561437
   5    0.00044301078945077
   6    0.0052572331944898
   7      -1.0844829744774
   8    0.0029501963174615
   9     0.029305025254462
  10     0.031632265421425
  11    0.0082203466051789
  12    0.0023434151023985
  13    -0.059338088272932
  14    0.0023161165346944
  15      -1.0166807602185
  16      -1.9969878720751
  17       6.4714307697416
  18     -0.12510363088232
  19    0.0088068195320256
  20     0.037764414788556
  21      -0.1132866528228
  22    0.0071385157177291
  23    -0.048626908130879
  24      0.04868211500186
  25      0.03446076375532
  26    -0.020007339870926
  27     0.010635277861029
  28     0.012700902147444
  29     -0.68085988185895
  30     -0.91687469972271
  31     0.019999725644264
  32    0.0021132487654585
  33       0.1019392648235
  34     -0.63145074372465
  35     -0.94282224209764
  36     0.011489541133961
  37    -0.064841224379068
  38     -0.02842978528773
  39     -0.65722441350845
  40     -0.95239095512836
  41     0.015826312535071
  42     0.076189628718226
  43     -0.03190047554338
  44      0.12711255065113
  45       0.0140061322777
  46     0.056417374075076
  47    -0.00082547931359121
  48    -0.0048211958649239
  49      0.12172076496814
  50    -0.0034302032045583
  51      0.05376312267936
  52    -0.0023853922693455
  53     0.000999766807618
  54      0.13019370451766
  55     0.012769013633949
  56     0.055965029124485
  57    0.00052969987119294
  58    -0.0012096494552978
 Sym= A
 Ene=              11
 Spin= Alpha
 Occup=    0.00000
   1     0.005626472376153
   2      0.01102102885181
   3    -0.037100647100637
   4    0.0009370764859547
   5     -0.44400853549516
   6     0.047549383098172
   7    -0.0047997836932932
   8       2.8255220485218
   9     0.032278333379361
  10      0.14396811760674
  11     -0.03205235570851
  12    -0.028372209384528
  13     0.085848679581197
  14     -0.77736074362294
  15    -0.00089260966856827
  16    -0.0013880831892776
  17      0.01381083457108
  18    -0.00048893603617438
  19    -0.016823335604405
  20    -0.0039861630674998
  21    -0.0076979041641712
  22     -0.84813866948981
  23    -0.076620289397502
  24    -0.0084708910981721
  25    -0.010606871258074
  26     0.026199628407221
  27    -0.004957176567977
  28    -0.069571039742316
  29     0.019037339214421
  30     0.084210436251441
  31     -0.01101923432994
  32     0.074360694666125
  33    -0.0098377009077829
  34     -0.15554168434726
  35     -0.27430461016238
  36    -0.028347895619709
  37    -0.017938581406293
  38     -0.05381605520831
  39      0.13410184784658
  40      0.19116298040536
  41     0.040429161812305
  42    -0.0099639724791392
  43     0.048195854804581
  44      0.85463731796175
  45       1.4195130150129
  46    0.0067656275697333
  47      0.14255648025907
  48      0.16167435990588
  49     -0.24644153645425
  50      -0.3208769439569
  51    -0.014403662051692
  52     -0.27611243739608
  53      0.12654508032972
  54     -0.59643451461795
  55      -1.0851436468132
  56    0.0098087155296703
  57    -0.037423301350227
  58     -0.21750543321472
 Sym= A
 Ene=              12
 Spin= Alpha
 Occup=    0.00000
   1    -0.011796158529074
   2    -0.022673467273647
   3     0.085203991165145
   4     -0.01456361101657
   5    -0.038454984015312
   6     -0.45234300117463
   7     0.089812202322348
   8    -0.028393591151001
   9       2.8589265844151
  10     0.040132496973524
  11     -0.75656417176524
  12      0.15933166686484
  13     0.033425381845247
  14     0.021541833695355
  15    0.0018922750588188
  16    0.0012531049084807
  17     -0.08025366095027
  18    0.0088387004191926
  19     0.004825579565345
  20    -0.021072179849848
  21     0.052054123045036
  22     0.079849320460951
  23     -0.86502245822333
  24    -0.023009974831387
  25    -0.063832031174115
  26    -0.0094297872320485
  27    -0.017378842695516
  28    0.0089390246118722
  29      0.17323427116519
  30      0.26637915243155
  31     0.037848754795954
  32    0.00013162301250042
  33    -0.042494985603359
  34    -0.065172624615758
  35     -0.07046593223354
  36    -0.030616408159564
  37    -0.044634166633279
  38     0.049149784824973
  39     -0.10034410552144
  40     -0.21938488301661
  41    -0.0098174621984733
  42      0.05907213047174
  43     0.041002766832015
  44      0.21574091346173
  45      0.45740010599773
  46    -0.014389979602226
  47      0.12058587108103
  48     -0.25277427796195
  49     -0.84666043767778
  50      -1.4551497092194
  51    -0.0079161329698534
  52     0.081509741926481
  53      0.15865184716086
  54      0.62821704932577
  55       1.0205748229037
  56    0.0090148882241048
  57      -0.2592185861395
  58    -0.077284707420422
 Sym= A
 Ene=              13
 Spin= Alpha
 Occup=    0.00000
   1     -0.03691157594347
   2    -0.053832963907137
   3      0.59457041104138
   4     -0.57761397041624
   5    0.0022143332539865
   6     0.020638187184607
   7       3.3750830383875
   8    -0.00024233435427429
   9    -0.062220792507912
  10     -0.19871095489717
  11    0.0058896007705214
  12    0.0065483250204891
  13      0.38260309043494
  14    0.0002948779484975
  15     0.019810723088759
  16    -0.027209058387449
  17      -2.2345096725614
  18       0.2880187703965
  19    -3.3215241170817e-05
  20    0.0012530965673382
  21       1.5481109737083
  22    -0.0013974751793593
  23     0.022664946475888
  24     0.062300695895104
  25    -0.00055627312970737
  26    -0.00062743784669737
  27     -0.10908651679543
  28    0.00011615877339097
  29     0.041185330273226
  30     -0.30810869274085
  31    -0.0095802075032617
  32    -0.0011401205428548
  33     0.028457204232185
  34     0.047167851951044
  35     -0.29809880659512
  36    -0.0087842236071505
  37    -0.022316080206896
  38    -0.016763836019446
  39     0.047126743116038
  40     -0.29474122508526
  41    -0.0091702199196185
  42     0.023664963937395
  43    -0.014388699136592
  44      0.25211848250138
  45      0.66617748414512
  46     -0.14671453394446
  47      0.10076961053419
  48     0.041804909434425
  49       0.2559239174021
  50      0.70613262921183
  51     -0.15138962688225
  52    -0.022995650807775
  53      -0.1016005234916
  54      0.24590811222753
  55      0.65508097480814
  56      -0.1473807573025
  57    -0.074293043213609
  58     0.078839048777909
 Sym= A
 Ene=              14
 Spin= Alpha
 Occup=    0.00000
   1    -0.00037800313367563
   2    0.00050067288470008
   3     0.037979078340059
   4    0.0051920979309857
   5    -0.029680626490055
   6     0.004111429290792
   7     0.025681754844814
   8     -0.89773651322797
   9     0.074724157254743
  10    -0.010132851562254
  11    -0.0096579417777541
  12     0.029613383759231
  13    -0.0031581344744651
  14     0.050147175659123
  15    0.0026331824621668
  16    0.0048949896178115
  17     -0.02175787231684
  18    -0.0080007338873871
  19     -0.47888638609159
  20    -0.042483133387347
  21     0.051201695911422
  22       2.9085086128216
  23    -0.010481130366824
  24    -0.080931060391194
  25    -0.021485468551324
  26     -0.13429424092316
  27    -0.055863300666523
  28      0.70077117620307
  29     0.050601158087973
  30    -0.0039638533028436
  31    -0.014011075790793
  32     -0.29553086982827
  33     -0.02119255598007
  34      0.72058560647746
  35       1.3057841287471
  36    -0.0063073937213641
  37      0.04900029826267
  38      0.18220813880856
  39     -0.77952069272959
  40      -1.3269884381611
  41     0.014188371276717
  42     0.056837461726562
  43     -0.22011954061377
  44     -0.16240675812711
  45      -0.2411715210511
  46     0.037957897052844
  47    -0.027533021602818
  48    -0.033468868298704
  49     0.016873184077841
  50    -0.019561245708349
  51     -0.01970941091844
  52     0.073661933904354
  53    -0.015455155484374
  54      0.14279075313298
  55      0.27425066028201
  56    -0.018944517758192
  57    0.0065476387402158
  58      0.06406331575847
 Sym= A
 Ene=              15
 Spin= Alpha
 Occup=    0.00000
   1    0.0045619745042585
   2    0.0071926112034247
   3    -0.088246803340227
   4    -0.0031293937090249
   5    -0.0049928649619168
   6    -0.022773285747659
   7     -0.05471578379476
   8    -0.077938816188395
   9     -0.87250559788409
  10    -0.027384290970453
  11     0.062399012126773
  12    -0.0093009592834322
  13    -0.015359395571668
  14    0.0091822755040468
  15    -0.019067673159337
  16    -0.036940014717148
  17      0.13655467160309
  18     0.018588239245037
  19     0.039859758426594
  20     -0.44540588702437
  21    -0.081914205152057
  22     0.020318408494132
  23       2.8835588139858
  24      0.15411305277927
  25      0.75634565325909
  26    -0.097941190957166
  27     0.074952055207996
  28     0.020236600217949
  29     -0.90829056049163
  30      -1.5146570922325
  31      0.02011279091714