[Molden Format]
made by pyscf v[2.0.1]
[Atoms] (AU)
C   1   6     0.00000000000000     0.00000000000000     0.00000000000000
C   2   6     2.89040035821050     0.00000000000000     0.00000000000000
H   3   1     3.65380793584534     0.00000000000000     1.93990930394644
H   4   1     3.65380793584534    -1.68001073825540    -0.96995465197322
H   5   1     3.65380793584534     1.68001073825540    -0.96995465197322
H   6   1    -0.76340757763484    -1.82291845791239     0.66348805817456
H   7   1    -0.76340757763484     1.48605674244297     1.24694966449241
H   8   1    -0.76340757763484     0.33686171546942    -1.91043772266697
[GTO]
1 0
 s    8 1.00
                  6665  0.00069158396281299
                  1000  0.0053257961529341
                   228   0.027060721042034
                 64.71    0.10165684614077
                 21.06     0.2745748236174
                 7.495    0.44829431892377
                 2.797    0.28490261071525
                0.5215   0.015194859206082
 s    8 1.00
                  6665  -0.00029326965268655
                  1000  -0.0023180354739745
                   228  -0.011499786038565
                 64.71  -0.046826727009787
                 21.06   -0.12846616875047
                 7.495   -0.30126627246289
                 2.797   -0.25563070233011
                0.5215      1.093793361012
 s    1 1.00
                0.1596                   1
 p    3 1.00
                 9.439   0.056979251590039
                 2.002    0.31320721150073
                0.5456    0.76037674173753
 p    1 1.00
                0.1517                   1
 d    1 1.00
                  0.55                   1

2 0
 s    8 1.00
                  6665  0.00069158396281299
                  1000  0.0053257961529341
                   228   0.027060721042034
                 64.71    0.10165684614077
                 21.06     0.2745748236174
                 7.495    0.44829431892377
                 2.797    0.28490261071525
                0.5215   0.015194859206082
 s    8 1.00
                  6665  -0.00029326965268655
                  1000  -0.0023180354739745
                   228  -0.011499786038565
                 64.71  -0.046826727009787
                 21.06   -0.12846616875047
                 7.495   -0.30126627246289
                 2.797   -0.25563070233011
                0.5215      1.093793361012
 s    1 1.00
                0.1596                   1
 p    3 1.00
                 9.439   0.056979251590039
                 2.002    0.31320721150073
                0.5456    0.76037674173753
 p    1 1.00
                0.1517                   1
 d    1 1.00
                  0.55                   1

3 0
 s    3 1.00
                 13.01   0.033498726389998
                 1.962    0.23480080117413
                0.4446     0.8136829578829
 s    1 1.00
                 0.122                   1
 p    1 1.00
                 0.727                   1

4 0
 s    3 1.00
                 13.01   0.033498726389998
                 1.962    0.23480080117413
                0.4446     0.8136829578829
 s    1 1.00
                 0.122                   1
 p    1 1.00
                 0.727                   1

5 0
 s    3 1.00
                 13.01   0.033498726389998
                 1.962    0.23480080117413
                0.4446     0.8136829578829
 s    1 1.00
                 0.122                   1
 p    1 1.00
                 0.727                   1

6 0
 s    3 1.00
                 13.01   0.033498726389998
                 1.962    0.23480080117413
                0.4446     0.8136829578829
 s    1 1.00
                 0.122                   1
 p    1 1.00
                 0.727                   1

7 0
 s    3 1.00
                 13.01   0.033498726389998
                 1.962    0.23480080117413
                0.4446     0.8136829578829
 s    1 1.00
                 0.122                   1
 p    1 1.00
                 0.727                   1

8 0
 s    3 1.00
                 13.01   0.033498726389998
                 1.962    0.23480080117413
                0.4446     0.8136829578829
 s    1 1.00
                 0.122                   1
 p    1 1.00
                 0.727                   1

[5d]
[7f]
[9g]

[MO]
 Sym= A
 Ene=               0
 Spin= Alpha
 Occup=    1.00000
   1       1.0022670279211
   2    0.0054678944945826
   3    -0.0088543820320527
   4    -0.00021359024323816
   5    -1.1977330950568e-07
   6    -7.3417731045039e-08
   7    -0.00079209332567007
   8    -5.5354005823523e-08
   9    -3.6797577272367e-08
  10    8.8905422140933e-05
  11    6.336571853622e-09
  12    -6.8151052263372e-09
  13    -0.00015398625310256
  14    1.0825264017675e-09
  15    -0.0001248461216127
  16    0.00016941517525477
  17    0.0023288694518584
  18    -0.00031284872536788
  19    -7.8510180496864e-08
  20    6.997954962392e-08
  21    -0.0011876303608303
  22    -3.48803585965e-08
  23    3.5418694840807e-08
  24    9.7875987845468e-05
  25    6.3544430009712e-09
  26    2.6857729507334e-09
  27    -0.0001695178116608
  28    2.5913216374183e-09
  29    -9.5965358345879e-05
  30    0.00011755580614693
  31    -4.8288015476934e-05
  32    -1.8930540544132e-06
  33    -1.8864716589374e-05
  34    -9.6013438043967e-05
  35    0.00011751846338883
  36    -4.8286337339874e-05
  37    1.7280522899613e-05
  38    7.7970471085724e-06
  39    -9.611606139018e-05
  40    0.00011748972093089
  41    -4.8283032890458e-05
  42    -1.5385085418719e-05
  43    1.1066934793338e-05
  44    0.00047782481339165
  45    0.0012588894787618
  46    -8.8893803099177e-05
  47    -0.00034698561806425
  48    0.00012706211473017
  49    0.00047763651908979
  50    0.0012588156203257
  51    -8.8900074916267e-05
  52    0.00028354142010849
  53    0.00023697151570606
  54    0.00047780713370021
  55    0.0012588954885561
  56    -8.8894324223641e-05
  57    6.3446976963929e-05
  58    -0.00036403283495007
 Sym= A
 Ene=               1
 Spin= Alpha
 Occup=    1.00000
   1    -0.00012488336569751
   2    0.00016944829614808
   3    0.0023288985876614
   4    0.00031297184178985
   5    7.7185600036852e-08
   6    1.1724740549535e-07
   7    0.0011876874608746
   8    3.0052538515128e-08
   9    5.1622760984567e-08
  10    9.786512612365e-05
  11    6.4476058793221e-09
  12    3.4658953790307e-09
  13    -0.00016951091814947
  14    8.5303527741118e-09
  15       1.0022670226835
  16     0.005467988250505
  17    -0.0088543164142125
  18    0.00021349660768813
  19    2.4360198335365e-07
  20    2.3121316822754e-07
  21    0.0007920500650116
  22    1.1446178589784e-07
  23    1.0659042348861e-07
  24    8.8909956690859e-05
  25    3.8122903182051e-09
  26    -1.1942917469144e-08
  27    -0.00015397450089478
  28    6.1549511860843e-09
  29    0.00047796347553799
  30    0.0012589358270177
  31    8.8886102846434e-05
  32    -7.1938686789962e-07
  33    0.00036950851689804
  34    0.0004774964422418
  35    0.0012587483346144
  36    8.8901943065709e-05
  37    -0.00031966287221723
  38    -0.00018539381181306
  39    0.00047785367341276
  40    0.0012588947350188
  41    8.8889936061597e-05
  42    0.00032037726501434
  43    -0.00018411964438523
  44    -9.6072599230241e-05
  45    0.00011750984049419
  46    4.8287307773601e-05
  47    1.836924107745e-05
  48    -4.66978791009e-06
  49    -9.596322082644e-05
  50    0.00011752172755605
  51    4.8291015211946e-05
  52    -1.3238525985908e-05
  53    -1.3575328253857e-05
  54    -9.6130082957163e-05
  55    0.00011748956639938
  56    4.8285768224172e-05
  57    -5.1338458454385e-06
  58    1.8241039253593e-05
 Sym= A
 Ene=               2
 Spin= Alpha
 Occup=    1.00000
   1    -0.013353809702875
   2      0.18315641718194
   3      0.10970175334656
   4     -0.12439275456051
   5     0.059574012185056
   6     -0.34072060738613
   7    -0.061113628118954
   8     0.028407357382496
   9     -0.16154453034979
  10     0.018579589667745
  11     0.013817749231257
  12    -0.0060183027547062
  13    0.0022553900355921
  14    -0.0024051623686175
  15    -0.0024500457788206
  16    -0.020540291911126
  17    -0.014558238193268
  18     0.025112175352709
  19    -0.00013597633689538
  20    -0.0016009247267136
  21     0.014713002862104
  22    -0.0029808242120693
  23    0.0065593005469007
  24    0.00083963931621623
  25     0.016386970548449
  26    -0.00027119155239099
  27    0.0055969025676901
  28    -0.0027850311010006
  29      0.02385284358094
  30       0.0425773536256
  31    0.00033601182099018
  32    1.6058755037802e-07
  33    0.0012733034890546
  34    -0.0085164516222712
  35    -0.0089472841512731
  36    0.0019570055672517
  37    0.00021851713619949
  38    0.0007421387295456
  39    -0.015714877650244
  40    -0.017870677732719
  41    0.0018368247372684
  42    -0.00045241258117601
  43    0.00076517381732116
  44    -0.020013768690498
  45    -0.037318437782254
  46    -0.0025574834064574
  47    0.0042583757789065
  48    -0.011353990065133
  49    -0.020158416097441
  50    -0.037594906522483
  51    -0.0025456721302882
  52    -6.2670434317206e-05
  53    -0.012045536995801
  54       0.4310535892418
  55       0.1615877615446
  56     0.012865918549726
  57    -0.005258669797103
  58     0.029408161476069
 Sym= A
 Ene=               3
 Spin= Alpha
 Occup=    1.00000
   1    -0.0024503063568711
   2    -0.020540592514717
   3     -0.01455826487082
   4    -0.025109530998026
   5    -0.0011380251066573
   6    -0.0011329983069278
   7    -0.014711750170057
   8    0.0069411701007893
   9      0.00193300221079
  10    -0.0029752357169532
  11    -0.0084000936614282
  12    0.0034249839934825
  13    0.0033946193394098
  14    -0.014343254844561
  15    -0.013353167297999
  16      0.18315747348092
  17      0.10970254038637
  18      0.12439076955163
  19     -0.29929820196206
  20     -0.17337881870867
  21     0.061112685271368
  22     -0.14200908831608
  23    -0.082079514731674
  24    -0.0040541123263208
  25    -0.007039597080861
  26     0.015911331496842
  27    -0.010812038126577
  28    -0.012130967807952
  29    -0.020162210680215
  30    -0.037596756152104
  31    0.0025457430266074
  32    -0.0091870617452886
  33    -0.0077905555181753
  34       0.4310535528981
  35      0.16158765346667
  36    -0.012865976046713
  37     0.025908239729446
  38     0.014874699720878
  39    -0.020010374407157
  40    -0.037317157284313
  41    0.0025573100123508
  42    -0.011435085740304
  43    -0.0040360739541769
  44    -0.015716325669538
  45    -0.017870958570403
  46    -0.001836808347992
  47    0.00087683131656937
  48    0.00014534592182517
  49     0.023852648374737
  50     0.042577379961283
  51    -0.00033595964909336
  52    0.00097535586964497
  53    0.0008186236494712
  54    -0.0085178431456245
  55    -0.008948180788105
  56    -0.001956992653459
  57    0.00042809170978886
  58    0.00064435232692822
 Sym= A
 Ene=               4
 Spin= Alpha
 Occup=    1.00000
   1    -0.0024500788088618
   2    -0.020540940295184
   3    -0.014558831232995
   4    -0.025115116303534
   5    0.0015533851954227
   6    -0.00041584418180138
   7    -0.014714394465693
   8     -0.00514312755188
   9    0.0050462118337927
  10    -0.0044015351174949
  11    -0.0082216115019742
  12    -0.0024737847258503
  13    0.0025706615025795
  14     0.014446203227816
  15    -0.013353946578426
  16      0.18315584664577
  17      0.10970120922903
  18      0.12439573365832
  19      0.29979979558851
  20     -0.17250845766961
  21     0.061115037378929
  22      0.14208754480441
  23    -0.081942868492639
  24    -0.0044038680377022
  25    -0.0069860012765406
  26    -0.015677973162767
  27    -0.011014368281029
  28     0.012161809465744
  29    -0.020008040734327
  30     -0.03731612843468
  31    0.0025573652771718
  32    0.0092128864083783
  33     -0.00788518730695
  34    -0.020162076657827
  35    -0.037596117151766
  36    0.0025458709479258
  37     0.011340315817308
  38    -0.0040609148841184
  39      0.43105362757022
  40      0.16158781650372
  41    -0.012865839358837
  42    -0.025835986245725
  43     0.014999899032153
  44     0.023852646936734
  45     0.042577359176137
  46    -0.00033610003569325
  47    -0.0011965179466224
  48    0.00043546196649455
  49    -0.0085123780106489
  50    -0.0089458499855697
  51    -0.0019569445065341
  52    -0.00077234183142558
  53    4.8348040111439e-05
  54    -0.015716799264009
  55    -0.017870990716483
  56    -0.0018369620792524
  57    -0.00056418339105318
  58    0.00068673585021316
 Sym= A
 Ene=               5
 Spin= Alpha
 Occup=    1.00000
   1    -0.013353384985942
   2      0.18315570092053
   3      0.10970119555988
   4     -0.12439428769115
   5      0.26528516779119
   6      0.22195342322949
   7    -0.061114326493835
   8      0.12569785261225
   9      0.10537394072901
  10    0.00072643695450394
  11    -0.008991753999384
  12     0.017920495748919
  13    -0.0080523234179315
  14    -0.010764183388288
  15    -0.0024503842347344
  16    -0.020542086202506
  17     -0.01455944180287
  18     0.025113184741116
  19    0.0014489618961048
  20    0.00068425277097423
  21     0.014713455036927
  22    -0.0041926873729852
  23    -0.005860391583807
  24    -0.0035367357367074
  25    -0.010605355094032
  26    0.0031891385430443
  27    0.0030700819072254
  28    -0.012799214954586
  29     -0.01571410985113
  30    -0.017870117865533
  31    0.0018368341595393
  32    -0.00043662093416703
  33    -0.00077437393362841
  34     0.023855724388323
  35     0.042578879641016
  36    0.00033594827380437
  37    -0.0011027789419277
  38    -0.00063636163400113
  39    -0.0085217394115466
  40    -0.0089492989582501
  41    0.0019572212779738
  42    -0.00075171678521937
  43    -0.00018202471634454
  44    -0.020158111206809
  45    -0.037595124588404
  46    -0.0025457022923831
  47     0.010463124459813
  48    0.0059684889515922
  49      0.43105390694869
  50      0.16158825541515
  51     0.012865896492819
  52    -0.022838876507544
  53    -0.019258200107129
  54    -0.020013966717594
  55    -0.037318265912586
  56    -0.0025575304238685
  57    0.0077036581239387
  58    0.0093648222333003
 Sym= A
 Ene=               6
 Spin= Alpha
 Occup=    1.00000
   1    -0.0024504139707028
   2    -0.020539915270378
   3    -0.014557944381673
   4    -0.025111355728064
   5    -0.00041364056978417
   6    0.0015497995757321
   7     -0.01471259935682
   8    -0.001797211395798
   9    -0.006978835818244
  10    0.00073593499992756
  11     0.016621817448951
  12    -0.00095109042931812
  13    0.0055370556208291
  14    -0.00010308567386637
  15    -0.013354131976852
  16      0.18315544524128
  17      0.10970122486799
  18      0.12439127769907
  19    -0.00050296684499304
  20      0.34589041770758
  21     0.061112917396463
  22    -7.9140385338716e-05
  23      0.16402384437908
  24     0.019462970763821
  25     0.014025680604734
  26    -0.00023326829831332
  27    0.0027655270386976
  28    -3.0981122107468e-05
  29      0.43105391856797
  30       0.1615883016387
  31    -0.012865960225704
  32    -7.2298166302816e-05
  33    -0.029874478219388
  34    -0.020010662588915
  35    -0.037317156593194
  36    0.0025573505641255
  37    0.0022221164985042
  38     0.011921129667676
  39    -0.020164726502954
  40    -0.037597529887788
  41    0.0025458555529109
  42    -0.0021531168602795
  43      0.01185141968823
  44    -0.0085165595748602
  45    -0.0089478951929793
  46    -0.0019569854658783
  47    0.00034407030155599
  48    -0.00069303317383583
  49    -0.015717597603348
  50    -0.017871607500457
  51    -0.0018368853892742
  52    -0.00031251126938225
  53    -0.00083204134458589
  54     0.023855386637538
  55     0.042578561889763
  56    -0.00033590145814259
  57    0.00022118812712529
  58    -0.0012538341920749
 Sym= A
 Ene=               7
 Spin= Alpha
 Occup=    1.00000
   1    -0.013353807684741
   2      0.18315527744309
   3      0.10970099367213
   4     -0.12439325989723
   5     -0.32486038878987
   6      0.11876751119374
   7    -0.061113855211751
   8     -0.15410570921487
   9     0.056170737200907
  10    -0.0083011007327365
  11    -0.0048260271575311
  12    -0.011902206444483
  13    -0.013264238721894
  14     0.013169238114027
  15    -0.0024501612458703
  16    -0.020540475288511
  17    -0.014558413510679
  18     0.025113146950327
  19    -0.0013162401056269
  20    0.00091630731360379
  21     0.014713447755986
  22    0.0071719962722968
  23    -0.0006990822269458
  24    -0.0039436808544244
  25    -0.0057816467113979
  26    -0.0029177863671279
  27    0.0028351326603276
  28      0.01558417163289
  29    -0.0085178832515965
  30    -0.0089478910683339
  31    0.0019570771026233
  32    0.0005335217534348
  33    -0.00056024533051452
  34    -0.015715537935176
  35    -0.017871010243204
  36    0.0018368695978485
  37    0.00088888946993406
  38    9.1286739601852e-06
  39      0.02385560272023
  40     0.042578625602508
  41    0.00033593906702825
  42    0.0011025069951386
  43    -0.00063673625675543
  44      0.43105390485245
  45      0.16158829000468
  46     0.012865911657396
  47     0.028097507836878
  48    -0.010149935850059
  49    -0.020014753940052
  50    -0.037318747923419
  51    -0.002557539233423
  52    -0.011961979641021
  53     0.001989195705996
  54    -0.020158916768164
  55    -0.037595125135552
  56    -0.0025457089367435
  57    -0.010400422885674
  58    0.0060769941165314
 Sym= A
 Ene=               8
 Spin= Alpha
 Occup=    1.00000
   1    -0.010940888613395
   2      0.19887312094762
   3      0.14951823130745
   4      0.36546876861476
   5    3.9191639702518e-07
   6    1.2736169081734e-06
   7      0.16964585844853
   8    1.1377130949005e-07
   9    6.3813458773723e-07
  10    -0.015949453025021
  11    -9.0203965654036e-08
  12    1.9056990125037e-08
  13     0.027625130284534
  14    1.4723725900385e-07
  15    -0.010941118193971
  16      0.19887171167164
  17      0.14951737599991
  18     -0.36546945486214
  19    3.3811263874024e-06
  20    -8.1370198195159e-07
  21     -0.16964617970646
  22    1.6005327647857e-06
  23    -4.1755793804421e-07
  24    -0.015949485899599
  25    -9.420703710868e-08
  26    -1.7055233050497e-07
  27       0.0276252051693
  28    1.1864864537623e-07
  29    -0.022184029084272
  30    -0.037385260032428
  31    -0.0091966768686973
  32    -1.2381959609181e-06
  33    -0.0013774216226735
  34    -0.022185341438732
  35    -0.037385665062096
  36    -0.0091966337374972
  37    0.0011935197524369
  38    0.00068744407269072
  39    -0.022180301520637
  40    -0.037383500103385
  41    -0.0091968040224709
  42    -0.0011923450533748
  43    0.00068998215563408
  44    -0.022182006592935
  45    -0.037384238444251
  46    0.0091967446015977
  47    0.0012949427241991
  48    -0.00046985101460767
  49    -0.022181506646823
  50    -0.037384455674901
  51    0.0091967570181188
  52    -0.0010544665145306
  53    -0.00088651907133091
  54    -0.022183454444116
  55    -0.037385239972564
  56    0.0091966950686619
  57    -0.00024051052534421
  58    0.0013563517623644
 Sym= A
 Ene=               9
 Spin= Alpha
 Occup=    0.00000
   1     -0.99809680360705
   2       -1.962809395669
   3       6.2902275529303
   4      0.18370011634665
   5    -0.013388056968684
   6     0.040829768633167
   7    -0.064707314918969
   8    -0.0024712187539713
   9    -0.064141488728908
  10    -0.070227850333746
  11    -0.034127724175799
  12    -0.0030626617204433
  13      0.01876299871953
  14     0.014098567399278
  15     0.089521526223609
  16     0.099886575901544
  17       -1.805010305382
  18      0.20040207694495
  19    -0.0015241133386416
  20    0.0070690724025982
  21       1.0070192508045
  22    -0.0059101722025828
  23      0.02960014214464
  24      0.04982663687672
  25    -0.0083866999026968
  26    0.00066448701354929
  27    -0.074098301364061
  28    0.0021193965681297
  29     0.095565505004547
  30    -0.0044916907206732
  31    -0.043867274701092
  32    0.0020861013883483
  33     0.002818204018854
  34      0.10578830683356
  35    -4.6712414436614e-06
  36    -0.044675621532244
  37    -0.0025820004830002
  38    -0.00092018065886574
  39      0.10841082965929
  40    0.0058810280996649
  41    -0.046447765487756
  42    0.0010247875507957
  43    -0.0037213488697815
  44     -0.66134483713714
  45     -0.93953040871106
  46    0.0029364480462176
  47     -0.08747147919423
  48     0.041411438556222
  49     -0.63595658950185
  50       -0.924611522542
  51    0.0084162070329323
  52     0.059240214767281
  53     0.064210027993579
  54      -0.6159960170033
  55     -0.97105436125917
  56       0.0117778228281
  57    0.0088181816371317
  58    -0.064083084956924
 Sym= A
 Ene=              10
 Spin= Alpha
 Occup=    0.00000
   1     0.086335036860129
   2     0.098772999360481
   3      -1.6447136101838
   4     -0.18112147136877
   5    -0.0008573059072681
   6     0.011381770981519
   7     -0.90220943743919
   8    -0.0096452068095994
   9     0.023899699433838
  10     0.040730558299065
  11     0.019920143665927
  12    0.0022742198689439
  13    -0.069998431763857
  14    -0.0017429528677501
  15     -0.97657994619854
  16       -1.921595305402
  17       6.1337609787104
  18     -0.21252823034157
  19    -0.00064867815214631
  20     0.016917531466044
  21      0.24980571262721
  22     0.042338845358177
  23    -0.0073423875678674
  24    -0.033093930928166
  25     0.088877426378259
  26     -0.02463852802686
  27     0.013466137944964
  28    0.0037737928317866
  29     -0.65869651030879
  30      -0.9655732259134
  31    -0.027575604605965
  32    0.0010107221292941
  33      0.10376861898627
  34      -0.6107993091843
  35     -0.94303221298573
  36    -0.014387917249125
  37     -0.05787093658708
  38    -0.047509122847661
  39     -0.64664325264389
  40     -0.98261264967287
  41    -0.0062278947552091
  42     0.066277869606227
  43    -0.050735614477669
  44     0.096611046539075
  45     0.012900282224321
  46     0.043005399229618
  47    -0.00042603053907766
  48    -0.0021661836272221
  49     0.096568664859868
  50     0.011374130571321
  51     0.040009654441281
  52    -0.00035363803729506
  53    -4.3105963050972e-05
  54      0.10175139486725
  55     0.025629809733487
  56     0.047227989475861
  57    0.0036374843472494
  58    -0.003394235622094
 Sym= A
 Ene=              11
 Spin= Alpha
 Occup=    0.00000
   1    -0.025540887746978
   2    -0.049300038493064
   3       0.1819901379858
   4    -0.026429204868702
   5    -0.039578055706633
   6     -0.33556678678717
   7      0.15011722599837
   8    -0.014580832309758
   9        2.865171066477
  10     -0.40949450035034
  11     -0.82564858760299
  12      0.15888349950973
  13     -0.23008066812134
  14     0.016311112489619
  15    0.0046413481946173
  16    0.0051069438773245
  17     -0.14390672937058
  18     0.012918694106053
  19    0.0045713156527888
  20    -0.00012935615317779
  21     0.092630022820545
  22     0.062336734842162
  23     -0.59757404159432
  24     0.011486846691348
  25    -0.049663503585145
  26    -0.0095442990519543
  27    0.0014254370374184
  28    0.0073064773377602
  29      0.10125436697075
  30    -0.0082580026262668
  31     0.081820863037237
  32    0.00098430044033621
  33    -0.014326660805059
  34    -0.028503232287925
  35     0.044599355030808
  36    -0.052383614169975
  37    -0.032229025498453
  38      0.05154763410735
  39    -0.057644184189406
  40    -0.076516885892943
  41    -0.034850899982159
  42     0.045015229671386
  43     0.045312635934761
  44     -0.42239053635028
  45     -0.51575406819028
  46      -0.0419329319585
  47     -0.17685378918847
  48     -0.17398463146095
  49     -0.65617021088788
  50     -0.95328412268998
  51    -0.037712975918364
  52       0.2202435847786
  53    -0.032969125110267
  54         1.05628573484
  55       1.4891204311728
  56     0.052806744388947
  57     -0.10146503542776
  58      0.24659934216759
 Sym= A
 Ene=              12
 Spin= Alpha
 Occup=    0.00000
   1    0.0033804338819782
   2    0.0064191636038509
   3    -0.028138555462942
   4    0.0087823666102298
   5     -0.33933168506528
   6       0.0397682709568
   7    -0.035251893248553
   8       2.8688592120263
   9    0.0015761462748698
  10      0.14403691060716
  11    -0.027801860172988
  12      0.45436981859298
  13     0.089444033824574
  14     -0.82589555515873
  15     -0.00148859061702
  16    -0.0025614051494173
  17     0.028444040275104
  18    -0.00039637497016869
  19    -0.00040689179147889
  20    -0.002714409468946
  21     -0.01865965713253
  22     -0.59938044924476
  23    -0.056764880815454
  24    -0.0085175157073723
  25    -0.010788000661469
  26    -0.0093392558580065
  27    -0.0055191467773569
  28    -0.049923112913475
  29     0.015445044804503
  30      0.07200930651668
  31    -0.0095296025904487
  32      0.07061973388823
  33    -0.0091382111149844
  34     -0.09335952818216
  35    -0.035882119587954
  36    -0.067005616021125
  37    0.0027402256828373
  38    -0.040658738026403
  39     0.074917544744695
  40    -0.026406740262505
  41     0.077673883581215
  42    0.0085353653014305
  43     0.034364642657613
  44      0.98969884929441
  45       1.4100171727712
  46     0.055556963952667
  47      0.19674095624258
  48     -0.14337602029961
  49     -0.84615437184616
  50      -1.1579855604346
  51    -0.047836425460712
  52     0.058284678825083
  53       0.2588238943432
  54     -0.13891346693439
  55     -0.26279428064791
  56    0.0017904092672402
  57     -0.22062618587171
  58    -0.063258039368265
 Sym= A
 Ene=              13
 Spin= Alpha
 Occup=    0.00000
   1     -0.35382556418345
   2     -0.67507739606897
   3       2.6738134430965
   4     -0.60597418536163
   5    0.0031663302167858
   6     0.012616836641532
   7       3.4310469636488
   8     0.029725497250446
   9      -0.1260012501004
  10    -0.088029345763019
  11     0.038745152970852
  12    0.0016678276319482
  13      0.21365486660268
  14    -0.017164289997073
  15     0.074090024201591
  16     0.064978990132465
  17      -2.8727343461872
  18      0.28513035037111
  19    0.00080256477170007
  20    -0.00045034251789454
  21       1.8848300402028
  22    -0.0063830620115706
  23     0.024741414040669
  24      0.05173958019367
  25      0.00246719164286
  26    -0.00021108563100402
  27    -0.092256764086596
  28    -0.0023499261222802
  29     0.086035505357269
  30     -0.30217864386938
  31    -0.033487318163281
  32    0.00011278262672037
  33     0.031113748149982
  34     0.090431235307171
  35     -0.30520622629256
  36    -0.028243577454349
  37    -0.024942810850544
  38    -0.018564423440285
  39     0.092292162798112
  40     -0.30118564677936
  41    -0.026814151188394
  42     0.024782223839337
  43    -0.016590114510584
  44     0.037495950020299
  45      0.41375101850528
  46     -0.18398674688175
  47     0.080918817374132
  48    -0.020651813773464
  49     0.019457607616092
  50      0.40541208611291
  51     -0.18609244157415
  52    -0.062934114715923
  53    -0.041974977347506
  54    -0.050278309331607
  55      0.30694118097933
  56     -0.19024848141749
  57    -0.0089539250326998
  58     0.057860094401274
 Sym= A
 Ene=              14
 Spin= Alpha
 Occup=    0.00000
   1    -0.0022481545270783
   2    -0.0043801432201595
   3     0.016979300860071
   4    -0.0022088788255999
   5    -0.0018695779671563
   6    0.0030374278334066
   7    0.0090112818531538
   8     -0.60202019741542
   9      0.07685660506455
  10    -2.5818055944931e-05
  11    -0.010600059151608
  12     0.012690263932397
  13    -0.0020841476176398
  14     0.046489604382232
  15     0.011174059415865
  16     0.021950292169085
  17    -0.073982404562962
  18    -0.0015950522711872
  19     -0.34613435420905
  20    -0.038589219519664
  21    -0.0041701562041647
  22        2.873151839585
  23      -0.1010488291366
  24     -0.11834626286628
  25    -0.052200914097496
  26     -0.47302570044666
  27    -0.053347097040632
  28      0.81183333174455
  29      0.10613906851695
  30     0.067828106300334
  31    -0.018842528240648
  32     -0.23413039509726
  33    -0.036957789060775
  34      0.88198910415367
  35       1.2887125893079
  36    -0.044912046995537
  37      0.12269112907719
  38      0.19347122516962
  39     -0.95703728785538
  40      -1.3200136282512
  41     0.058148187217544
  42      0.13937735138077
  43     -0.22818964202729
  44    -0.098635901813381
  45    -0.028169530714121
  46     0.075354618180503
  47    -0.0082054032178388
  48     0.027603432163431
  49     0.061290966285901
  50     -0.04106497776524
  51    -0.068987941913818
  52     0.025400184448907
  53    -0.039751141492677
  54     0.033496178891622
  55     0.068980872281423
  56    -0.0082894096732282
  57     0.066843306334663
  58     0.023079963092281
 Sym= A
 Ene=              15
 Spin= Alpha
 Occup=    0.00000
   1    -0.014076509941182
   2    -0.022328058594025
   3      0.27755953951117
   4     0.010198244077897
   5    -0.0054780341462403
   6    -0.00033735132210375
   7      0.17671487246919
   8     -0.08370697072608
   9     -0.59414233770531
  10    -0.0093203804813771
  11     0.050113158601677
  12    -0.0038171781573867
  13    -0.0062500457534389
  14    0.0071145027278101
  15      0.05677987278706
  16      0.10981323769409
  17     -0.41075077071895
  18    -0.062155334159152
  19     0.022157191229886
  20     -0.34726969094578
  21      0.27358512668229
  22      0.10501939994539
  23       2.8476332703459
  24      0.36778300068624
  25      0.81959884661979
  26     -0.10031368403333
  27      0.25618333344568
  28     0.033318226306142
  29      -1.0166336362515
  30      -1.4922124028263
  31     0.029785707298599
  32    0.0080741877061172