[Molden Format]
made by pyscf v[2.0.1]
[Atoms] (AU)
C   1   6     0.00000000000000     0.00000000000000     0.00000000000000
C   2   6     2.89040035821050     0.00000000000000     0.00000000000000
H   3   1     3.65380793584534     0.00000000000000     1.93990930394644
H   4   1     3.65380793584534    -1.68001073825540    -0.96995465197322
H   5   1     3.65380793584534     1.68001073825540    -0.96995465197322
H   6   1    -0.76340757763484     0.00000000000000     1.93990930394644
H   7   1    -0.76340757763484     1.68001073825540    -0.96995465197322
H   8   1    -0.76340757763484    -1.68001073825540    -0.96995465197322
[GTO]
1 0
 s    8 1.00
                  6665  0.00069158396281299
                  1000  0.0053257961529341
                   228   0.027060721042034
                 64.71    0.10165684614077
                 21.06     0.2745748236174
                 7.495    0.44829431892377
                 2.797    0.28490261071525
                0.5215   0.015194859206082
 s    8 1.00
                  6665  -0.00029326965268655
                  1000  -0.0023180354739745
                   228  -0.011499786038565
                 64.71  -0.046826727009787
                 21.06   -0.12846616875047
                 7.495   -0.30126627246289
                 2.797   -0.25563070233011
                0.5215      1.093793361012
 s    1 1.00
                0.1596                   1
 p    3 1.00
                 9.439   0.056979251590039
                 2.002    0.31320721150073
                0.5456    0.76037674173753
 p    1 1.00
                0.1517                   1
 d    1 1.00
                  0.55                   1

2 0
 s    8 1.00
                  6665  0.00069158396281299
                  1000  0.0053257961529341
                   228   0.027060721042034
                 64.71    0.10165684614077
                 21.06     0.2745748236174
                 7.495    0.44829431892377
                 2.797    0.28490261071525
                0.5215   0.015194859206082
 s    8 1.00
                  6665  -0.00029326965268655
                  1000  -0.0023180354739745
                   228  -0.011499786038565
                 64.71  -0.046826727009787
                 21.06   -0.12846616875047
                 7.495   -0.30126627246289
                 2.797   -0.25563070233011
                0.5215      1.093793361012
 s    1 1.00
                0.1596                   1
 p    3 1.00
                 9.439   0.056979251590039
                 2.002    0.31320721150073
                0.5456    0.76037674173753
 p    1 1.00
                0.1517                   1
 d    1 1.00
                  0.55                   1

3 0
 s    3 1.00
                 13.01   0.033498726389998
                 1.962    0.23480080117413
                0.4446     0.8136829578829
 s    1 1.00
                 0.122                   1
 p    1 1.00
                 0.727                   1

4 0
 s    3 1.00
                 13.01   0.033498726389998
                 1.962    0.23480080117413
                0.4446     0.8136829578829
 s    1 1.00
                 0.122                   1
 p    1 1.00
                 0.727                   1

5 0
 s    3 1.00
                 13.01   0.033498726389998
                 1.962    0.23480080117413
                0.4446     0.8136829578829
 s    1 1.00
                 0.122                   1
 p    1 1.00
                 0.727                   1

6 0
 s    3 1.00
                 13.01   0.033498726389998
                 1.962    0.23480080117413
                0.4446     0.8136829578829
 s    1 1.00
                 0.122                   1
 p    1 1.00
                 0.727                   1

7 0
 s    3 1.00
                 13.01   0.033498726389998
                 1.962    0.23480080117413
                0.4446     0.8136829578829
 s    1 1.00
                 0.122                   1
 p    1 1.00
                 0.727                   1

8 0
 s    3 1.00
                 13.01   0.033498726389998
                 1.962    0.23480080117413
                0.4446     0.8136829578829
 s    1 1.00
                 0.122                   1
 p    1 1.00
                 0.727                   1

[5d]
[7f]
[9g]

[MO]
 Sym= A
 Ene=               0
 Spin= Alpha
 Occup=    1.00000
   1    -0.00014004635012665
   2    0.00014256348786646
   3    0.0024516145348861
   4    0.00031287006673966
   5    -3.9352032948852e-07
   6    -7.2198530173443e-08
   7     0.001151794027889
   8    -1.5276561924911e-07
   9    -2.5117924034157e-08
  10    0.00010574802573632
  11    -7.8800911401179e-09
  12    1.9497898875022e-08
  13    -0.00018316804851122
  14    -2.5444393027943e-08
  15       1.0022732061324
  16    0.0054860982988776
  17    -0.0088802362819209
  18    0.00019747780676398
  19    -8.7256987976959e-07
  20    -2.2843223975048e-07
  21    0.00078084447595535
  22    -4.0435377383734e-07
  23    -1.0716904208932e-07
  24    8.8978447143178e-05
  25    -5.6409061888808e-09
  26    4.3902876070465e-08
  27    -0.0001541382048877
  28    -1.6014186335846e-08
  29    0.00047780910205268
  30    0.0012706266099873
  31    9.0402591768683e-05
  32    -2.6668907819297e-08
  33    0.00036678495290917
  34    0.00047873109856207
  35    0.0012710029985765
  36    9.037040203892e-05
  37    -0.0003176068724619
  38    -0.00018336201375388
  39    0.00047746683414469
  40    0.0012704910212411
  41    9.0414697793827e-05
  42    0.0003176512624045
  43    -0.00018341843690141
  44    -0.00011288397628049
  45    7.9010781170522e-05
  46    4.1805794182026e-05
  47    -1.1666065011818e-08
  48    -1.621405398378e-05
  49    -0.00011305692817162
  50    7.8960847290563e-05
  51    4.1798974250494e-05
  52    -1.4036078407291e-05
  53    8.0948934155653e-06
  54    -0.00011257091056849
  55    7.9079119251447e-05
  56    4.1818972921995e-05
  57    1.4058825626961e-05
  58    8.1214973405097e-06
 Sym= A
 Ene=               1
 Spin= Alpha
 Occup=    1.00000
   1       1.0022732045754
   2    0.0054861606242135
   3    -0.0088802045677612
   4    -0.00019764310302328
   5    6.8388118944736e-07
   6    2.2882373437209e-07
   7    -0.00078091821546644
   8    3.2026672669991e-07
   9    1.0554287841011e-07
  10    8.9008375972942e-05
  11    -3.6528264758885e-09
  12    -3.4443302252801e-08
  13    -0.0001541440133071
  14    -1.6251624211735e-08
  15    -0.00014006958494908
  16    0.00014228361078382
  17    0.0024514339796812
  18    -0.00031287137715517
  19    2.2968426403301e-07
  20    1.1483128058848e-07
  21    -0.0011517951097708
  22    8.1730719933117e-08
  23    4.5676104234975e-08
  24    0.00010575591556711
  25    -6.2124686249109e-09
  26    -1.1304431490698e-08
  27    -0.0001831632173809
  28    -2.3056124346885e-08
  29    -0.00011288985654174
  30    7.9022298714011e-05
  31    -4.1804738342576e-05
  32    6.7183183521823e-09
  33    -1.6206006012402e-05
  34    -0.00011314665031425
  35    7.8968419066757e-05
  36    -4.1793846165584e-05
  37    1.4019211388601e-05
  38    8.093534275087e-06
  39    -0.00011288411589602
  40    7.9009161591754e-05
  41    -4.180552415875e-05
  42    -1.4033173317474e-05
  43    8.1093528442973e-06
  44    0.00047827548980708
  45    0.0012708070694351
  46    -9.0389482210924e-05
  47    2.0942828188944e-08
  48    0.00036675649123354
  49    0.00047848978893842
  50     0.001270899439454
  51    -9.0382185140509e-05
  52    0.00031761936978668
  53    -0.00018335854966144
  54    0.00047748938239399
  55    0.0012704854166081
  56    -9.0416899707899e-05
  57    -0.00031765385163502
  58    -0.00018340264046084
 Sym= A
 Ene=               2
 Spin= Alpha
 Occup=    1.00000
   1    -0.0023851806902506
   2    -0.020568926295101
   3    -0.015532054735886
   4    -0.025080927846849
   5    -6.6325513614517e-07
   6    -8.488344122965e-05
   7    -0.015793809527605
   8    -5.9194468852894e-07
   9    -0.014790487428766
  10    -0.0023961295059163
  11     0.016284316052811
  12    3.6274154023236e-08
  13    0.0038407495212262
  14    3.2630991227169e-07
  15    -0.013507066375199
  16      0.18283464551995
  17      0.11099078446398
  18      0.12416128330418
  19    6.3852405750045e-06
  20      0.34643399393929
  21     0.060248996626649
  22    3.1097977095862e-06
  23      0.16719495668757
  24     0.018909612796819
  25     0.013704607543435
  26    -3.2280848497005e-07
  27    0.0022446373202693
  28    2.8369090694148e-07
  29      0.43095482682175
  30      0.16107157806565
  31    -0.012684904494123
  32    1.9699796663084e-07
  33    -0.030058018135717
  34    -0.020139205479762
  35    -0.036901908359643
  36    0.0025414859238139
  37    0.0020591850258144
  38      0.01185830447835
  39     -0.02012952498811
  40    -0.036897587788924
  41    0.0025411618896864
  42    -0.0020594959562254
  43     0.011858711467765
  44    -0.024188200992989
  45    -0.027540648180306
  46    -0.001184060074743
  47    -2.3746365297538e-08
  48    -0.00079842423522857
  49     0.012243976443861
  50     0.021118727787587
  51    -0.0011897239857038
  52    0.00032409291287506
  53    -0.00036983738464088
  54     0.012245746686966
  55     0.021120200001007
  56    -0.0011896905246877
  57    -0.0003240854030749
  58    -0.00036980562891473
 Sym= A
 Ene=               3
 Spin= Alpha
 Occup=    1.00000
   1    -0.013506413240528
   2      0.18283624335483
   3      0.11099202498896
   4      -0.1241574008746
   5     -0.30002355297725
   6      -0.1732126836385
   7    -0.060247185056755
   8      -0.1447965236621
   9    -0.083595554593745
  10    -0.003821613062549
  11     0.006852307476052
  12     0.015154313614475
  13    -0.010878863212392
  14     0.011868695134758
  15    -0.0023861440372053
  16    -0.020567107547226
  17    -0.015530653346593
  18     0.025077156374909
  19    7.4397077289795e-05
  20    4.6150262034738e-05
  21     0.015792045016015
  22     0.012809489412672
  23    0.0073968498398111
  24    -0.0021951204272463
  25     0.008142101981509
  26    -0.00013404981230998
  27    0.0039571652637884
  28     0.014102803340615
  29      0.01224743169821
  30     0.021120066425274
  31    0.0011895074271122
  32    0.00015825903814642
  33    0.00046541074077439
  34    -0.024190849698635
  35    -0.027542087825628
  36    0.0011840457921594
  37    0.00069131705767767
  38    0.00039922743683551
  39     0.012243897476403
  40     0.021119080822903
  41    0.0011896481057029
  42    0.00048242594704201
  43    -9.5691606347712e-05
  44    -0.020131373697508
  45    -0.036898883958302
  46    -0.0025411107789985
  47    -0.0092401891006027
  48    -0.0077128713862729
  49    -0.020138844952436
  50    -0.036901861256692
  51    -0.0025413743728647
  52    -0.011299212819289
  53    -0.0041458647804141
  54      0.43095483477861
  55      0.16107153079493
  56     0.012685001861782
  57      0.02603092029526
  58     0.015029141825652
 Sym= A
 Ene=               4
 Spin= Alpha
 Occup=    1.00000
   1    -0.0023851483226808
   2    -0.020570256895297
   3     -0.01553303858223
   4    -0.025083225422057
   5    -7.7378211906309e-05
   6    3.8265267316889e-05
   7    -0.015794863296319
   8     -0.01281069292202
   9    0.0073934621494743
  10    -0.0021951930611259
  11    -0.0081422511751377
  12    0.00013419799120266
  13    0.0039565030427397
  14      0.01410266160988
  15    -0.013506158764733
  16      0.18283282687182
  17      0.11098948463526
  18      0.12416334137444
  19      0.30001802850343
  20      -0.1732224935672
  21     0.060249944376492
  22      0.14479398443702
  23    -0.083599953224581
  24    -0.0038217783943911
  25    -0.0068523248727652
  26    -0.015154035866241
  27     -0.01087956100576
  28     0.011868616756259
  29    -0.020139063295567
  30    -0.036901287512457
  31    0.0025415529019451
  32    0.0092400205071442
  33    -0.0077123963482483
  34    -0.020130615524722
  35    -0.036898184576384
  36    0.0025412448912656
  37     0.011299644965155
  38    -0.0041458159713791
  39      0.43095511908996
  40      0.16107204534658
  41    -0.012684850879776
  42    -0.026031069474933
  43     0.015028832589123
  44     0.012241716346875
  45     0.021118608430038
  46    -0.0011898884678251
  47    -0.0001583479794721
  48    0.00046578832698284
  49    -0.024189233448014
  50    -0.027540952650405
  51    -0.0011841557449493
  52    -0.00069148056249114
  53    0.00039903274306775
  54      0.01224932702521
  55     0.021121287891418
  56    -0.0011896065914083
  57    -0.00048209438019806
  58    -9.5686568860483e-05
 Sym= A
 Ene=               5
 Spin= Alpha
 Occup=    1.00000
   1      -0.0135081740247
   2      0.18283453915967
   3      0.11099059845668
   4      -0.1241635024705
   5    6.4627198453689e-06
   6      0.34643319843083
   7    -0.060250064316438
   8    2.8711371065812e-06
   9      0.16719476338511
  10     0.018909648503159
  11    -0.013704786489696
  12    -3.2390621914361e-07
  13    0.0022444990009221
  14    1.7960019837192e-08
  15    -0.002385238560622
  16    -0.020568698184371
  17    -0.015532048303706
  18     0.025083307709111
  19    5.8206165140309e-06
  20    -8.9360574603537e-05
  21     0.015794951132885
  22    2.5339160639224e-06
  23    -0.014792614254036
  24    -0.0023962465214095
  25    -0.016284455726907
  26    -2.9119453646539e-07
  27    0.0038405006061928
  28    -7.3529828166324e-08
  29    -0.024191130990297
  30    -0.027541923869512
  31    0.0011842187839553
  32    1.7590417726328e-07
  33    -0.00079831799510764
  34     0.012243693258495
  35     0.021119238195939
  36    0.0011898169678857
  37    -0.00032402460381305
  38    -0.00037002326831966
  39     0.012251662120275
  40     0.021122031612548
  41    0.0011895213660338
  42    0.00032371343324189
  43    -0.00036964049725859
  44      0.43095513901044
  45      0.16107200891171
  46     0.012684847718083
  47    1.9601352813014e-07
  48    -0.030058037046154
  49    -0.020128980653556
  50    -0.036897830326127
  51    -0.0025411815134892
  52    -0.002059595204296
  53     0.011858746027608
  54    -0.020137992653511
  55    -0.036901151453363
  56    -0.0025415096824078
  57    0.0020592550244814
  58     0.011858323287774
 Sym= A
 Ene=               6
 Spin= Alpha
 Occup=    1.00000
   1    -0.0023845664155894
   2    -0.020567740717137
   3    -0.015531455372929
   4    -0.025083614781966
   5    7.4014301847526e-05
   6    4.6449247708002e-05
   7    -0.015795088233007
   8     0.012809303029885
   9    0.0073969631192349
  10    -0.0021948510011384
  11    -0.0081420795725497
  12    -0.00013403046134632
  13    0.0039567281751218
  14    -0.014102786378352
  15    -0.013509171975678
  16      0.18283370403227
  17      0.11099010218525
  18      0.12416294003858
  19     -0.30002351415619
  20     -0.17321195521005
  21     0.060249808284727
  22     -0.14479648863003
  23    -0.083595215778732
  24    -0.0038213803077733
  25    -0.006852292719571
  26     0.015154311487384
  27    -0.010879193028885
  28    -0.011868675610625
  29    -0.020130161586147
  30    -0.036898008157787
  31    0.0025412226107871
  32    -0.0092401877060011
  33    -0.0077129195675448
  34      0.43095507742061
  35      0.16107198849279
  36    -0.012684857027394
  37     0.026030910533417
  38     0.015029157663248
  39    -0.020138497601651
  40    -0.036901315923773
  41    0.0025415172490224
  42     -0.01129920346153
  43    -0.0041458470991734
  44     0.012249447962329
  45     0.021120967624284
  46    -0.0011895979736161
  47    0.00015824722921532
  48     0.000465240948164
  49     0.012245310713669
  50     0.021119783962132
  51    -0.001189761525177
  52    0.00048231106018562
  53    -9.5623264768811e-05
  54    -0.024188856259493
  55    -0.027541125833693
  56    -0.0011841397867598
  57    0.00069145058753612
  58    0.00039932017773574
 Sym= A
 Ene=               7
 Spin= Alpha
 Occup=    1.00000
   1    -0.013508484849633
   2      0.18283166105206
   3       0.1109887011293
   4      -0.1241642357882
   5      0.30001798966377
   6     -0.17322335992998
   7    -0.060250404951231
   8       0.1447939466411
   9    -0.083600656967859
  10    -0.0038218188104024
  11    0.0068526744230837
  12    -0.015154033710109
  13    -0.010879584350607
  14     -0.01186859419048
  15    -0.0023847976366253
  16     -0.02056833021761
  17    -0.015531940062002
  18     0.025085620289893
  19    -7.6930730520507e-05
  20    4.497411081298e-05
  21     0.015796001927324
  22    -0.012810475310924
  23    0.0073967367674684
  24    -0.0021948082709184
  25    0.0081425572089656
  26    0.00013417537191384
  27    0.0039565150504946
  28    -0.014102642087781
  29     0.012249323451088
  30     0.021121695110466
  31    0.0011896785446387
  32    -0.00015833417771241
  33    0.0004653109293886
  34     0.012247769185141
  35     0.021120268659538
  36    0.0011897028616545
  37    -0.00048215352397324
  38    -9.552161408255e-05
  39     -0.02419011379873
  40    -0.027541670332333
  41    0.0011842293064563
  42    -0.00069144323888855
  43    0.00039922623262746
  44    -0.020140531711626
  45    -0.036902164594785
  46    -0.0025416207365296
  47    0.0092400190783337
  48    -0.0077123375503296
  49       0.4309554258527
  50      0.16107255564051
  51     0.012684819962796
  52    -0.026031058647716
  53     0.015028795343186
  54    -0.020130196191517
  55    -0.036897576150992
  56    -0.0025412738510977
  57     0.011299634289002
  58    -0.0041458514802512
 Sym= A
 Ene=               8
 Spin= Alpha
 Occup=    1.00000
   1     0.010890068939535
   2     -0.19909276899787
   3     -0.14915172316415
   4     -0.36528871070044
   5    -5.643696894202e-06
   6    -1.5676025174733e-06
   7     -0.16968092618939
   8    -2.6871275252484e-06
   9    -8.3298952517085e-07
  10     0.016081442492942
  11    1.4638721007173e-07
  12    2.8469195801464e-07
  13    -0.027854035376619
  14    1.8284060427732e-07
  15     0.010890481035531
  16     -0.19909422262658
  17     -0.14915263222423
  18      0.36528800192607
  19    -8.5866787166286e-07
  20    1.7957407598454e-06
  21      0.16968060874299
  22    -1.7411686879962e-07
  23    9.3337750386547e-07
  24     0.016081547818559
  25    1.446879699525e-07
  26    4.0920673446228e-08
  27     -0.02785387511773
  28    2.312721011202e-07
  29     0.022217654791942
  30     0.037252067017639
  31    0.0092402499071671
  32    -2.3511439400254e-08
  33    0.0014161025880826
  34     0.022215456129101
  35      0.03725064699463
  36    0.0092403069127421
  37    -0.0012264682967906
  38    -0.00070803210667389
  39      0.02221484838839
  40     0.037250994863335
  41    0.0092403506670698
  42    0.0012265326076133
  43    -0.00070809638521644
  44     0.022215431071175
  45     0.037250643832104
  46    -0.0092403217203698
  47    -1.7336866803561e-07
  48    0.0014161300743374
  49      0.02221346980857
  50     0.037249999224079
  51    -0.0092403960947352
  52    0.0012264416873616
  53    -0.0007082357454628
  54     0.022221851136775
  55     0.037253583916496
  56    -0.009240109646831
  57    -0.0012261611962772
  58    -0.00070787361496559
 Sym= A
 Ene=               9
 Spin= Alpha
 Occup=    0.00000
   1      -1.0599773750816
   2       -2.076692725504
   3       6.8511048106674
   4    -0.034050535116288
   5     0.035123637416189
   6    -0.016418134286725
   7       1.0589182862683
   8    -0.033758941171849
   9    -0.0071826277841929
  10    -0.076587535016289
  11     0.026803201857654
  12      -0.0475090370414
  13     0.070192303668993
  14    -0.038395676831082
  15      0.11840352263424
  16      0.13116324878553
  17      -2.7377854432563
  18      0.27227038850611
  19    0.0048111086677528
  20    -0.0022148552231243
  21       1.5496197749157
  22     0.024873080182039
  23    -0.005574882418417
  24     0.052630467361718
  25     0.005110708934634
  26    0.0022627780193898
  27     -0.08748556271976
  28    -0.0087484016741366
  29      0.14511735431294
  30    -0.070412122537904
  31    -0.061803488099547
  32    -0.0026871497693298
  33    0.0098388086342782
  34      0.14776165318259
  35    -0.065961746358995
  36    -0.061503921488412
  37    -0.0090895942207849
  38    -0.0027974576914581
  39      0.14206955698138
  40    -0.083131863517461
  41      -0.0587000466165
  42    0.0059437507678435
  43    -0.0040840062177597
  44     -0.58402720421073
  45     -0.77374375877456
  46    -0.055681584516836
  47    0.0088620776600173
  48     0.046173689840508
  49     -0.64630518409024
  50      -0.7724488463644
  51    -0.063872742912262
  52     0.069945425715575
  53    -0.038404074073997
  54     -0.59673208354115
  55     -0.79470569607419
  56     -0.05674555171563
  57    -0.038513885396742
  58    -0.030489643086133
 Sym= A
 Ene=              10
 Spin= Alpha
 Occup=    0.00000
   1       0.1116330260929
   2      0.14053525326184
   3      -2.0388623961963
   4     -0.17693942050568
   5    -0.0055773088109439
   6    0.0020619302779127
   7      -1.0753250506525
   8    -0.023808898143689
   9     0.010479689288428
  10       0.0297690297397
  11    0.0031104251399473
  12    -0.0022862820627802
  13     -0.05121077089482
  14    -0.010483568911086
  15      -1.0149242891346
  16      -1.9933475085899
  17       6.4706823502503
  18     -0.11630138196862
  19    -0.035580901345075
  20    0.0089264293381128
  21     -0.10509636114295
  22     0.024725998433123
  23    -0.019539106810147
  24     0.026146897233735
  25     0.011601424897825
  26     0.048179660746113
  27    -0.038277441307364
  28    -0.047853952543456
  29      -0.6649042249754
  30     -0.93116110769555
  31     0.019638018043562
  32    -0.0072314010433778
  33      0.09014028875169
  34     -0.69140814137884
  35     -0.93813339468281
  36     0.023874213654589
  37    -0.091062810229758
  38    -0.047204994223766
  39      -0.6325182901133
  40     -0.95144309486956
  41     0.017729020560411
  42     0.057032562152628
  43    -0.035907682646774
  44      0.12686546703233
  45    0.0072050154919496
  46     0.056098443291773
  47    0.0025295573079297
  48    0.00065655161427691
  49      0.13201954014005
  50     0.021276677898324
  51     0.058640875215853
  52    0.0023111548042879
  53    -0.00067427348374456
  54       0.1269123373286
  55    0.0046065227089769
  56     0.055101280706228
  57    0.0013014604389688
  58    -0.001509362190404
 Sym= A
 Ene=              11
 Spin= Alpha
 Occup=    0.00000
   1    -0.010259874360252
   2    -0.020085938658882
   3     0.073722184290569
   4    -0.007384760649609
   5     -0.51161057327016
   6    -0.0052255634797116
   7    -0.0047077913257248
   8        2.981491510741
   9    -0.035519274069549
  10    -0.0067441791592167
  11     0.017916132478472
  12     -0.13322963729388
  13    -0.039331371377588
  14     -0.62871082831157
  15    0.0039906968660762
  16    0.0087912015025983
  17     -0.01550244183337
  18    -0.0081117346083419
  19    -0.043062035144876
  20    -0.0001867560304843
  21    0.0064882487285741
  22     -0.97099611468679
  23    0.0077056584152014
  24    -0.0011888233589107
  25    0.0023252021842498
  26     0.037751651371827
  27    0.0059251009914121
  28    -0.034709922178501
  29    -0.00033380652716755
  30    -0.0017109289868857
  31    -0.0017210930647122
  32     0.079715285826868
  33    0.00093558386043072
  34     -0.16307106345966
  35     -0.28671074423271
  36    -0.024855177800609
  37    -0.012356072659536
  38    -0.053356223386403
  39      0.16876630643905
  40      0.28951280931051
  41     0.023652830656364
  42    -0.013488528928491
  43     0.053612533647702
  44     0.010872634145735
  45    0.0074407320506163
  46    -0.0013055448907363
  47     -0.29429153644509
  48    -0.0060823464253323
  49     -0.76462045811646
  50      -1.3699105333641
  51    -0.023282470714382
  52     0.046448553809868
  53     -0.19716001947379
  54      0.71239769458802
  55       1.3242986802793
  56     0.010485216312372
  57     0.034794652102255
  58      0.18956460462861
 Sym= A
 Ene=              12
 Spin= Alpha
 Occup=    0.00000
   1    0.0028546281709929
   2    0.0030756252114242
   3    -0.095913941106735
   4    -0.0084069658520152
   5    0.00051615564136549
   6    -0.029701538318692
   7    -0.062395704785394
   8    -0.0065616615210877
   9     -0.92298085327891
  10    -0.031213532071894
  11     0.057585800887007
  12     0.001492691857989
  13    -0.021286625078578
  14    0.0026422504031341
  15     -0.01291864212279
  16    -0.024735662897466
  17     0.096950495362184
  18     0.020603162063041
  19    0.0041384905627304
  20      -0.4615392443532
  21     -0.11141593392219
  22     0.032065230688705
  23       2.9237166394024
  24      0.13981262066533
  25      0.72759881249431
  26    -0.019808908034556
  27     0.085351080357474
  28     0.018468657454265
  29     -0.89211812845657
  30      -1.5227126292753
  31        0.021522257219
  32    -0.00052772274577582
  33      0.17941668460765
  34      0.46242731137639
  35      0.79297999572301
  36    -0.0028411936704195
  37      0.21298993096557
  38     -0.17003870142944
  39      0.42497290760472
  40       0.7614555216574
  41    0.0011617325257373
  42     -0.20158348613152
  43     -0.17723383248215
  44      0.18761996519025
  45      0.30474265904551
  46    -0.031318372729616
  47    0.00024282670704713
  48    -0.045622385052574
  49    -0.087571898348302
  50     -0.16552038425574
  51      0.01659208966217
  52     0.053266047383503
  53     0.045535553866578
  54    -0.090717688643174
  55     -0.16859908631379
  56     0.017952009117052
  57    -0.054563317055022
  58     0.044506429079747
 Sym= A
 Ene=              13
 Spin= Alpha
 Occup=    0.00000
   1     -0.01891790836936
   2    -0.018799853487009
   3       0.4648445786161
   4     -0.56364492645711
   5    -0.023816735509354
   6     0.032521092267484
   7       3.3610237293227
   8    0.0077389432475374
   9    -0.064237778858452
  10     -0.19667485778544
  11    -0.001211336663712
  12     0.038515199079207
  13      0.43260814373543
  14     0.031430113248581
  15     0.013170221526592
  16    -0.040812167532486
  17      -2.1889043983091
  18      0.29766053874943
  19    -0.0031765778426178
  20    0.0015760053552745
  21       1.5267410480057
  22    -0.012777423870187
  23     0.027201584605798
  24     0.064772489526448
  25    -0.001744440989098
  26    -0.0020796615591905
  27       -0.116810819716
  28    0.0065047010809344
  29     0.036826380346286
  30     -0.31034797097603
  31    -0.0072393390077464
  32    0.0015911358562887
  33     0.027956690321731
  34     0.042087281331373
  35     -0.29944319357154
  36    -0.0060092240730387
  37    -0.021345877234133
  38    -0.016427860254741
  39      0.04430994805462
  40     -0.28999908008272
  41    -0.0083045410758995
  42     0.023854889361462
  43     -0.01603922329639
  44      0.26298827990771
  45      0.72354774616796
  46     -0.14719620459789
  47    -0.0054660997934018
  48     -0.10103202673422
  49      0.29983879179992
  50       0.6773306948616
  51     -0.13409956400748
  52     -0.10522252783674
  53     0.072668231693396
  54      0.25296575733885
  55      0.67809052722178
  56     -0.14043058614986
  57     0.080685599889271
  58     0.064813276734678
 Sym= A
 Ene=              14
 Spin= Alpha
 Occup=    0.00000
   1    -0.0030973685041526
   2    -0.0071252496566388
   3      0.01032643534107
   4    -0.0073008835952239
   5    -0.037358800079203
   6    0.0014978368823526
   7     0.004933781753175
   8     -0.95178475676577
   9     0.013054715293178
  10    0.0013954039020173
  11    0.0025045784799283
  12      0.03961535564979
  13    -0.0050307216456501
  14     0.045707951572929
  15     0.004537947314097
  16    0.0088050468571002
  17    -0.037318618238111
  18    -0.0086872643644837
  19     -0.48115030633219
  20     0.017658196480365
  21    0.0043395087959397
  22       2.9702983909462
  23    -0.024520624658704
  24    0.0092301075124631
  25    0.0095075018678482
  26     -0.17353041153372
  27     0.035409826148328
  28      0.68050333993528
  29    -0.001742953474887
  30     0.015967099851266
  31    -0.0013861783113766
  32     -0.29029717827117
  33    0.0055092153294986
  34       0.7820244881934
  35       1.3460929888011
  36    -0.024754110412557
  37      0.05804664620899
  38      0.20763357341315
  39     -0.75462060559215
  40      -1.3465219496589
  41     0.012633403536173
  42     0.054668267623042
  43     -0.19264874292735
  44    -0.002972471122259
  45    -0.0046041366423411
  46    -0.00099857318195962
  47     0.077765049599909
  48    -0.00027732866144892
  49      0.16384567309768
  50       0.2843776303872
  51     -0.02664015777408
  52    -0.015283128524302
  53     0.052194121572937
  54     -0.16422346209743
  55     -0.27817563725567
  56     0.025746556436991
  57    -0.014151467543211
  58    -0.054595435876931
 Sym= A
 Ene=              15
 Spin= Alpha
 Occup=    0.00000
   1    -0.0033774521935529
   2    -0.0061343561676514
   3     0.029490282406128
   4    -0.013707332127371
   5    -0.011582182479105
   6     -0.49898747318605
   7      0.09526296007481
   8     0.030666214113385
   9       3.0062952261612
  10      0.14568650836649
  11     -0.63630504000981
  12    0.0079016110060893
  13      0.10614384276379
  14    0.0052071313051738
  15    0.00011205819737417
  16    -0.0022096425923951
  17    -0.067842420362266
  18     0.010772176486892
  19    -0.0016268885850377
  20    -0.044165862708604
  21     0.046507560399864
  22    -0.013367935324008
  23     -0.97607548290166
  24    -0.033017581410707
  25    -0.034865096864465
  26    -7.6599761494198e-05
  27     -0.02501121763376
  28    0.0020348445976255
  29      0.19484999188054
  30      0.32513402125137
  31     0.027958012242211
  32    0.0011885952776986