[Molden Format]
made by pyscf v[2.0.1]
[Atoms] (AU)
C   1   6     0.00000000000000     0.00000000000000     0.00000000000000
C   2   6     2.89040035821050     0.00000000000000     0.00000000000000
H   3   1     3.65380793584534     0.00000000000000     1.93990930394644
H   4   1     3.65380793584534    -1.68001073825540    -0.96995465197322
H   5   1     3.65380793584534     1.68001073825540    -0.96995465197322
H   6   1    -0.76340757763484     0.33686171546942     1.91043772266697
H   7   1    -0.76340757763484     1.48605674244297    -1.24694966449241
H   8   1    -0.76340757763484    -1.82291845791239    -0.66348805817456
[GTO]
1 0
 s    8 1.00
                  6665  0.00069158396281299
                  1000  0.0053257961529341
                   228   0.027060721042034
                 64.71    0.10165684614077
                 21.06     0.2745748236174
                 7.495    0.44829431892377
                 2.797    0.28490261071525
                0.5215   0.015194859206082
 s    8 1.00
                  6665  -0.00029326965268655
                  1000  -0.0023180354739745
                   228  -0.011499786038565
                 64.71  -0.046826727009787
                 21.06   -0.12846616875047
                 7.495   -0.30126627246289
                 2.797   -0.25563070233011
                0.5215      1.093793361012
 s    1 1.00
                0.1596                   1
 p    3 1.00
                 9.439   0.056979251590039
                 2.002    0.31320721150073
                0.5456    0.76037674173753
 p    1 1.00
                0.1517                   1
 d    1 1.00
                  0.55                   1

2 0
 s    8 1.00
                  6665  0.00069158396281299
                  1000  0.0053257961529341
                   228   0.027060721042034
                 64.71    0.10165684614077
                 21.06     0.2745748236174
                 7.495    0.44829431892377
                 2.797    0.28490261071525
                0.5215   0.015194859206082
 s    8 1.00
                  6665  -0.00029326965268655
                  1000  -0.0023180354739745
                   228  -0.011499786038565
                 64.71  -0.046826727009787
                 21.06   -0.12846616875047
                 7.495   -0.30126627246289
                 2.797   -0.25563070233011
                0.5215      1.093793361012
 s    1 1.00
                0.1596                   1
 p    3 1.00
                 9.439   0.056979251590039
                 2.002    0.31320721150073
                0.5456    0.76037674173753
 p    1 1.00
                0.1517                   1
 d    1 1.00
                  0.55                   1

3 0
 s    3 1.00
                 13.01   0.033498726389998
                 1.962    0.23480080117413
                0.4446     0.8136829578829
 s    1 1.00
                 0.122                   1
 p    1 1.00
                 0.727                   1

4 0
 s    3 1.00
                 13.01   0.033498726389998
                 1.962    0.23480080117413
                0.4446     0.8136829578829
 s    1 1.00
                 0.122                   1
 p    1 1.00
                 0.727                   1

5 0
 s    3 1.00
                 13.01   0.033498726389998
                 1.962    0.23480080117413
                0.4446     0.8136829578829
 s    1 1.00
                 0.122                   1
 p    1 1.00
                 0.727                   1

6 0
 s    3 1.00
                 13.01   0.033498726389998
                 1.962    0.23480080117413
                0.4446     0.8136829578829
 s    1 1.00
                 0.122                   1
 p    1 1.00
                 0.727                   1

7 0
 s    3 1.00
                 13.01   0.033498726389998
                 1.962    0.23480080117413
                0.4446     0.8136829578829
 s    1 1.00
                 0.122                   1
 p    1 1.00
                 0.727                   1

8 0
 s    3 1.00
                 13.01   0.033498726389998
                 1.962    0.23480080117413
                0.4446     0.8136829578829
 s    1 1.00
                 0.122                   1
 p    1 1.00
                 0.727                   1

[5d]
[7f]
[9g]

[MO]
 Sym= A
 Ene=               0
 Spin= Alpha
 Occup=    1.00000
   1       1.0022727213622
   2    0.0054845690693015
   3    -0.0088780130521077
   4    -0.00019868023947335
   5    -7.0510887242785e-07
   6    -2.206764531535e-07
   7    -0.00078170230812202
   8    -3.3089687060791e-07
   9    -9.8130091358402e-08
  10    8.8984854678888e-05
  11    -2.2570369203901e-09
  12    2.5652149335206e-08
  13    -0.00015418123964785
  14    1.9208775840878e-08
  15    -0.00013893199120729
  16    0.00014442370589922
  17    0.0024425077429311
  18    -0.00031283689292869
  19    -1.873987665714e-07
  20    -2.3121687874159e-07
  21    -0.0011543593174575
  22    -6.2593325727582e-08
  23    -9.8802196408182e-08
  24    0.00010516515596018
  25    1.0132863158434e-09
  26    8.2952745100674e-09
  27    -0.00018217772287266
  28    2.5855170593018e-08
  29    -0.00011183218963621
  30    8.1753630472803e-05
  31    -4.227632475321e-05
  32    -1.9298663803592e-06
  33    -1.6393916659536e-05
  34    -0.00011145539081296
  35    8.1862457536998e-05
  36    -4.2291719483818e-05
  37    1.5182463320974e-05
  38    6.5391243728804e-06
  39    -0.00011165137831365
  40    8.1856395426935e-05
  41    -4.2282716091137e-05
  42    -1.3245695988079e-05
  43    9.8595404183389e-06
  44    0.00047758611059797
  45     0.001269640874629
  46    -9.0332543667136e-05
  47    6.4355936103306e-05
  48    0.00036132381413114
  49    0.00047751735371862
  50    0.0012695912773908
  51    -9.0334572469981e-05
  52    0.00028071389278004
  53    -0.00023642696759028
  54    0.00047848631751086
  55    0.0012700028849373
  56    -9.0300984859418e-05
  57    -0.00034505625125661
  58    -0.0001248915683324
 Sym= A
 Ene=               1
 Spin= Alpha
 Occup=    1.00000
   1    -0.00013893987881874
   2    0.00014421831577816
   3    0.0024423770787363
   4     0.000312864951726
   5    1.1957970527337e-07
   6    4.1392276863726e-10
   7    0.0011543744683852
   8    2.8969651261724e-08
   9    -2.3582975200568e-08
  10    0.00010517802719938
  11    3.1049557550875e-08
  12    -7.2472673099997e-09
  13    -0.00018217051633058
  14    2.4245255067102e-08
  15       1.0022727251498
  16    0.0054845530725715
  17    -0.0088780263910998
  18    0.00019874439490235
  19    6.1944248302345e-07
  20    6.5589341396934e-07
  21    0.00078172869068782
  22    2.9394947088502e-07
  23    3.152146141631e-07
  24    8.9042980203579e-05
  25    2.6068127891362e-08
  26    -3.1752497981537e-08
  27    -0.00015416081441871
  28    1.886159992371e-08
  29    0.00047844371080963
  30     0.001270000897037
  31    9.0304241236143e-05
  32    -6.363266570908e-07
  33    0.00036696584104905
  34    0.00047713127501607
  35    0.0012694303665322
  36    9.0348927871857e-05
  37    -0.00031753496223129
  38    -0.00018407613362787
  39    0.00047804926080558
  40     0.001269819694563
  41    9.0317429537631e-05
  42    0.00031815939135704
  43    -0.00018290157028843
  44    -0.00011179091712419
  45    8.1741217741139e-05
  46    4.2279374062837e-05
  47    -9.4791413202567e-07
  48    -1.6479297070304e-05
  49    -0.00011167940824767
  50    8.1841008492995e-05
  51    4.2282627707824e-05
  52    -1.3794833126241e-05
  53    9.0652208423987e-06
  54    -0.00011179749771931
  55    8.1838683351364e-05
  56    4.227583378584e-05
  57    1.4738120067002e-05
  58    7.410540961796e-06
 Sym= A
 Ene=               2
 Spin= Alpha
 Occup=    1.00000
   1    -0.013495630962511
   2      0.18285772215661
   3       0.1109001590836
   4     -0.12417904229103
   5      0.26502991184068
   6     -0.22304333414964
   7    -0.060310595465262
   8      0.12784955964666
   9     -0.10736123537913
  10    0.0013135296120699
  11    0.0088492328278814
  12    -0.017327037808615
  13    -0.0079000270958703
  14    -0.010495532471778
  15    -0.002389744310487
  16    -0.020566715874827
  17     -0.01546216524004
  18      0.02508392188675
  19    -0.00023941839348034
  20    -0.00033553442873951
  21     0.015718180013272
  22    -0.012093625311423
  23    0.0076754239848362
  24    -0.0014543999757242
  25     0.010562313454554
  26    -0.00026924718599217
  27    0.0043766079405898
  28    -0.012426737267885
  29     0.015754684253519
  30     0.027204139891125
  31    0.00096303511781744
  32    -8.6582464449024e-05
  33    0.00068181354854025
  34    0.0083253629621723
  35     0.014729818933063
  36    0.0014135539730491
  37    -0.0003351732542187
  38    9.7060288377815e-05
  39     -0.02382613819727
  40    -0.027161092855126
  41    0.0012260776069835
  42    -0.0006606587349611
  43    0.00046379982079517
  44    -0.020205523872073
  45    -0.037087219253532
  46    -0.0025365681453134
  47    0.0077510991961997
  48    -0.0091587519857507
  49      0.43096238921445
  50      0.16112291557215
  51     0.012698109504911
  52    -0.023062957956448
  53     0.019256549639206
  54    -0.020056895815743
  55    -0.036806678417676
  56    -0.0025482767257647
  57       0.0104653731367
  58    -0.0060360400005416
 Sym= A
 Ene=               3
 Spin= Alpha
 Occup=    1.00000
   1    -0.0023904498740256
   2    -0.020565211411821
   3    -0.015460928056447
   4    -0.025079468533845
   5    0.00018011809512355
   6    -0.00037284400997793
   7    -0.015716081558154
   8     0.013243828562038
   9    0.0054588032215524
  10     -0.00158281838553
  11    -0.0082443911173747
  12    0.00057055423048955
  13    0.0043028673682799
  14    -0.014071952086394
  15    -0.013494791594272
  16      0.18285907609836
  17      0.11090128033375
  18      0.12417451241114
  19     -0.29972986645058
  20     -0.17364256544323
  21     0.060308465187688
  22     -0.14454816388543
  23    -0.083534000449413
  24    -0.0036724198266114
  25    -0.0068926079983984
  26     0.015319939707434
  27    -0.010778253633468
  28    -0.011872669444626
  29    -0.020214737815252
  30    -0.037091379114519
  31     0.002536760826798
  32    -0.0092235982652779
  33    -0.0076731711730198
  34      0.43096237118776
  35      0.16112283180578
  36    -0.012698222474305
  37     0.026056586968467
  38      0.01495885952988
  39    -0.020050155682212
  40    -0.036804069906701
  41    0.0025479251302605
  42    -0.011354912538077
  43    -0.0041270378992646
  44      0.01575424479682
  45      0.02720427237209
  46    -0.00096295501686433
  47    0.00020375279477796
  48    0.00065648444910855
  49     0.008326129760803
  50     0.014729298539875
  51    -0.0014133915183963
  52    0.00034688515276224
  53    3.7467424827025e-05
  54    -0.023828655472091
  55    -0.027162288992976
  56    -0.0012260389191693
  57    0.0007310436186201
  58    0.00034194089878329
 Sym= A
 Ene=               4
 Spin= Alpha
 Occup=    1.00000
   1    -0.013495613273751
   2      0.18285578555122
   3      0.11089885389408
   4     -0.12418006758329
   5     0.060646633272492
   6      0.34104519704612
   7    -0.060311053635123
   8     0.029053216659783
   9      0.16440202033685
  10     0.017962419563156
  11    -0.013514091199082
  12    0.0062278643812155
  13    0.0017120815928345
  14    -0.0024161906606301
  15    -0.0023895302963487
  16    -0.020567694962921
  17    -0.015462879272103
  18     0.025085413100857
  19     0.000404324104414
  20    -4.0424775328623e-05
  21     0.015718848269035
  22    -0.00060318728060857
  23     -0.01431154402479
  24    -0.002458902614103
  25    -0.016043103075327
  26    0.00093925621028041
  27    0.0037964604571128
  28    -0.0029341184298398
  29    -0.023826934328905
  30    -0.027161374039338
  31     0.001226141287344
  32    -7.1517285909565e-05
  33    -0.00080399329386299
  34     0.015759591166373
  35     0.027206475032822
  36    0.00096290987894217
  37    -0.00054702073797769
  38    -0.00041572064799574
  39    0.0083212467523182
  40     0.014728142246118
  41    0.0014137332725914
  42    8.3664746235977e-05
  43    -0.00033900996684405
  44      0.43096273733727
  45      0.16112349378381
  46     0.012698085306016
  47    -0.0051451623412984
  48    -0.029601329228213
  49    -0.020057468446806
  50    -0.036806409166683
  51    -0.0025483441156594
  52    -5.2166074142553e-06
  53     0.012081252708674
  54    -0.020207140516395
  55    -0.037088030908194
  56    -0.0025366469192221
  57    0.0040560566975494
  58     0.011292009931139
 Sym= A
 Ene=               5
 Spin= Alpha
 Occup=    1.00000
   1    -0.0023897774642907
   2    -0.020567071928828
   3    -0.015462527841466
   4    -0.025086163067711
   5     0.000233046847005
   6    0.0003460427550299
   7    -0.015719248111707
   8     -0.01134925750135
   9    0.0087417627595263
  10    -0.0030244611920321
  11    -0.0080645295824519
  12    0.00039088548399811
  13    0.0034699509720188
  14       0.0141757878885
  15    -0.013496832773121
  16      0.18285746133134
  17      0.11089987262038
  18      0.12418133228612
  19       0.3002431478947
  20     -0.17275054724548
  21     0.060311683550503
  22      0.14461634130732
  23    -0.083414640625623
  24    -0.0040298823365831
  25    -0.0068358271825756
  26    -0.015081363774308
  27    -0.010985236086594
  28     0.011905471028012
  29    -0.020047342144628
  30    -0.036802856665494
  31    0.0025479988229207
  32    0.0092515545845181
  33    -0.0077703221749044
  34    -0.020213440354619
  35     -0.03709045763951
  36    0.0025368959868985
  37     0.011257008360008
  38    -0.0041511898779321
  39      0.43096264878461
  40      0.16112325390507
  41    -0.012698049204995
  42    -0.025983064217351
  43     0.015086289249507
  44    0.0083304478250503
  45     0.014731344215671
  46    -0.0014134176095612
  47    -0.00020594506598477
  48    0.00028143454467349
  49    -0.023829126120333
  50    -0.027162127195413
  51    -0.001226234226033
  52    -0.00066158714392608
  53    0.00046219576374704
  54     0.015754291452704
  55     0.027204538657259
  56    -0.00096313115464056
  57    -0.00067041736394788
  58    -0.00015168245956598
 Sym= A
 Ene=               6
 Spin= Alpha
 Occup=    1.00000
   1    -0.013497799599505
   2      0.18285686410927
   3      0.11089958688532
   4     -0.12417975249673
   5     -0.32567672940773
   6     -0.11800017240554
   7     -0.06031095294792
   8     -0.15690276228854
   9    -0.057039871089035
  10    -0.0080282382270186
  11    0.0046646643525385
  12     0.011099233698931
  13    -0.013293513097045
  14     0.012911627350043
  15    -0.0023894352023186
  16     -0.02056554732465
  17    -0.015461516350852
  18     0.025085613923844
  19    -0.0001671075619157
  20    0.0003732750386009
  21      0.01571898371972
  22      0.01269576607036
  23     0.006634758972422
  24    -0.0028628453378022
  25    0.0054806033776258
  26    -0.00066989119583823
  27    0.0035632906182584
  28     0.015360776879899
  29    0.0083248329355727
  30     0.014729346424654
  31    0.0014136035323453
  32    0.00025175945546416
  33    0.00024169182506135
  34    -0.023827052386227
  35    -0.027161686239595
  36    0.0012261402985817
  37    0.00073206447917936
  38    0.00034016529758383
  39     0.015759496967254
  40     0.027206121105278
  41    0.00096290758889494
  42    0.00063350376789851
  43    -0.00026576604479781
  44    -0.020056392624994
  45     -0.03680626409289
  46    -0.0025482910882883
  47     -0.01046007511418
  48    -0.0060452556730286
  49    -0.020206805124593
  50    -0.037087901534759
  51    -0.0025366278391814
  52    -0.011807213382613
  53    -0.0021333051229639
  54      0.43096266788428
  55      0.16112337272251
  56      0.01269808888862
  57     0.028208108246182
  58     0.010344853060367
 Sym= A
 Ene=               7
 Spin= Alpha
 Occup=    1.00000
   1    -0.002389447294183
   2    -0.020566142126541
   3    -0.015461943268007
   4    -0.025086462491246
   5    -0.00041041767306389
   6    2.8056185117727e-05
   7     -0.01571935555295
   8    -0.001893152082199
   9    -0.014200062810731
  10    -0.0021687593860634
  11     0.016308973894519
  12    -0.00096153198252455
  13    0.0039638935397519
  14    -0.00010406750982092
  15    -0.013497555652721
  16      0.18285538625578
  17      0.11089860840403
  18      0.12418017046582
  19    -0.00051587439131122
  20      0.34639530872264
  21      0.06031113136715
  22    -6.9532577543947e-05
  23      0.16694963559103
  24     0.018949926858748
  25     0.013728463658006
  26    -0.00023843981715718
  27    0.0022822703002417
  28    -3.3034266400744e-05
  29      0.43096292029648
  30      0.16112376890422
  31    -0.012698074358136
  32    -7.3601339811493e-05
  33    -0.030045052059265
  34    -0.020048710397884
  35    -0.036802850564893
  36    0.0025480443259422
  37    0.0021033252362815
  38     0.011897203054898
  39    -0.020216504771726
  40    -0.037091834258244
  41    0.0025369760478127
  42    -0.0020332653539389
  43     0.011824377209371
  44    -0.023828472946571
  45     -0.02716210895385
  46    -0.0012262040961909
  47    -6.9314846844478e-05
  48    -0.00080415608410855
  49     0.015759206331411
  50     0.027206649291385
  51    -0.00096296464679651
  52    0.0004664253909812
  53    -0.00050451131764042
  54    0.0083264757815235
  55     0.014729432121807
  56    -0.001413549822527
  57    -0.00014087888458147
  58    -0.00031920472054092
 Sym= A
 Ene=               8
 Spin= Alpha
 Occup=    1.00000
   1     0.010893762905314
   2     -0.19907844439734
   3     -0.14917692278241
   4     -0.36530117820622
   5    3.4106166387687e-07
   6    -1.395374578296e-06
   7     -0.16967870299111
   8    3.6575479554477e-07
   9    -5.8403298091065e-07
  10     0.016071848085632
  11    -7.3265191076852e-08
  12    -4.198670831359e-08
  13    -0.027837337029604
  14    -2.2763687928479e-07
  15     0.010893457441732
  16     -0.19907686091086
  17     -0.14917593596183
  18      0.36530195003405
  19    -4.5660714212859e-06
  20    -2.7043997687998e-06
  21        0.169679049938
  22    -2.2228337812403e-06
  23    -1.2457190889735e-06
  24     0.016071815825697
  25    -4.1817107020235e-08
  26    2.3018257023302e-07
  27    -0.027837463745353
  28    -1.9640689015298e-07
  29     0.022212109237279
  30     0.037259304758026
  31    0.0092371475519321
  32    7.395194762737e-07
  33    0.0014135789472069
  34     0.022218931778663
  35     0.037262180139268
  36     0.009236914529093
  37    -0.0012243315307609
  38    -0.00070585436294781
  39     0.022212022571124
  40     0.037259120665099
  41    0.0092371450825184
  42    0.0012236748649874
  43    -0.0007076686151719
  44     0.022212446980317
  45     0.037259859522397
  46    -0.009237132964917
  47    0.00024462895514416
  48     0.001392316530212
  49     0.022214464969591
  50     0.037260598839965
  51    -0.0092370676313903
  52    0.0010833783810709
  53    -0.00090794341602489
  54       0.0222131104937
  55     0.037259583553383
  56    -0.0092370940249395
  57    -0.0013279940884101
  58    -0.00048433170288409
 Sym= A
 Ene=               9
 Spin= Alpha
 Occup=    0.00000
   1      -1.0600763772231
   2      -2.0771027335883
   3       6.8484521110941
   4    -0.030447540600126
   5    -0.0080163180539885
   6    -0.010337707235416
   7       1.0335329690172
   8    -0.0058763248972337
   9     -0.03036023414729
  10    -0.079019761164484
  11     0.035939138818129
  12     0.017926962376256
  13     0.061613584156636
  14     -0.01152739688375
  15      0.11806065320371
  16      0.13145970124227
  17       -2.714711989479
  18      0.26941040974109
  19    0.0020974031998731
  20    -0.0023941944832618
  21       1.5394270181803
  22     0.002481471373158
  23     0.001368412942506
  24     0.052923329132331
  25    0.0065437980286336
  26    -0.0013042267193957
  27    -0.086536592314951
  28    -0.0033800715253764
  29      0.14189452548385
  30    -0.072271301550752
  31    -0.061564727165928
  32    0.0018875866297935
  33     0.010510998517588
  34      0.14452975895998
  35    -0.073055874323647
  36    -0.059643561686154
  37    -0.0080501029704888
  38    -0.0026881789353287
  39      0.14395064528778
  40    -0.073076704121021
  41    -0.058982540911283
  42    0.0060963350490789
  43    -0.0047801311955948
  44     -0.58078658437164
  45     -0.76656948819061
  46     -0.05545844272928
  47    8.6380283829782e-05
  48     0.046680441066847
  49     -0.62088106497314
  50     -0.79441677809154
  51    -0.053530133145184
  52     0.046660484139417
  53    -0.044447237307666
  54     -0.63352807496129
  55       -0.795234861759
  56    -0.065080833135006
  57    -0.064074528265204
  58    -0.018974340792271
 Sym= A
 Ene=              10
 Spin= Alpha
 Occup=    0.00000
   1      0.10865889963196
   2      0.13430332600203
   3      -2.0179706493804
   4     -0.18233419969088
   5    0.0030257372521761
   6    0.0021077388356648
   7      -1.0683027379871
   8     0.014716229228738
   9     0.010025347009329
  10     0.031729455978708
  11    0.0020312404138114
  12    0.0056646937534801
  13    -0.055513647654229
  14    0.0076542757794436
  15      -1.0133481960955
  16      -1.9905192414644
  17       6.4505969125825
  18      -0.1264248634606
  19     0.040790572179092
  20     0.013591167822514
  21    -0.087069276323566
  22    0.0012678375519763
  23    -0.017520511520591
  24     0.029906602135653
  25    0.0097346535922085
  26    -0.084178184614545
  27    -0.013471763622018
  28     0.041409751006455
  29     -0.66715206091156
  30     -0.93295886026344
  31     0.018060954912912
  32     0.013107422088076
  33     0.091728937945392
  34       -0.608125330909
  35     -0.93838405918061
  36    0.0055804866430921
  37    -0.051320914444948
  38    -0.032986449925505
  39     -0.69980934389245
  40      -0.9502230126217
  41     0.024250038126767
  42     0.096069062384142
  43    -0.043121353276585
  44      0.12337970307849
  45    0.0065131544759514
  46      0.05459050294623
  47    -0.0041153617158027
  48    0.0017619302565511
  49      0.12762225487157
  50    0.0071745326149685
  51     0.054618878399125
  52    -0.00049274556020401
  53    0.0002966546088803
  54      0.12809494025288
  55     0.018779539592467
  56     0.057393285981047
  57    -0.001982961800391
  58    -0.0019272854001706
 Sym= A
 Ene=              11
 Spin= Alpha
 Occup=    0.00000
   1    0.0075315136184257
   2     0.015025711168648
   3    -0.046123036476446
   4    -0.0056522319855718
   5     -0.44787431862296
   6     0.074225570367071
   7     0.046964308530882
   8       2.8654072906318
   9     -0.17359797327237
  10      0.13201608505817
  11     0.029941013411024
  12    -0.081022355288669
  13     0.095979420854918
  14     -0.75262737484346
  15    -0.0016442200103701
  16    -0.0041382307266287
  17    -0.016050562233817
  18    0.0060788839397376
  19    -0.022770526487836
  20    -0.0027951227205296
  21     0.014029479827482
  22     -0.88050043162131
  23    -0.0053684143553721
  24    -0.0052738583392251
  25    -0.0037220738368806
  26      0.03057634538224
  27    -0.0070946124816019
  28    -0.063564107647019
  29    0.0050298253238161
  30     0.048090829208126
  31     -0.01227445871424
  32     0.075083348336861
  33    -0.0050846212614554
  34     -0.15437952690524
  35     -0.28082873030272
  36    -0.024661795686007
  37    -0.014685950608915
  38    -0.058032237743519
  39      0.14764009523213
  40      0.22006309388983
  41     0.038324133315278
  42    -0.014588350636808
  43     0.045682683530431
  44     -0.14310758575153
  45     -0.15396117227422
  46    -0.015804598093136
  47     -0.28421731802696
  48     0.092302611062256
  49     -0.66498824556684
  50      -1.1914720339997
  51    0.0017763051066233
  52    -0.002138938299546
  53     -0.20613730205439
  54      0.84170207831401
  55       1.3986754788226
  56      0.01334442546737
  57      0.12305618422687
  58      0.19017473188455
 Sym= A
 Ene=              12
 Spin= Alpha
 Occup=    0.00000
   1    -0.012309858908209
   2     -0.02360067672507
   3     0.091820702847575
   4    -0.018602754965274
   5    -0.062701644979282
   6     -0.45662391216162
   7     0.099226141027069
   8      0.18706984157893
   9       2.9149094381401
  10       0.1055521736124
  11      -0.7244749762678
  12      0.14588690938845
  13     0.063737625411032
  14    -0.037558047599534
  15     0.002740046618667
  16    0.0031288624312163
  17    -0.086910089932838
  18    0.0072740579638439
  19    0.0026784888442977
  20    -0.028926859233613
  21     0.056329272728178
  22    0.0053647403737093
  23     -0.90474164721795
  24    -0.028838203269461
  25    -0.055545989265727
  26    -0.0070652759365476
  27    -0.019349196502875
  28     0.003299789834607
  29      0.18235653451893
  30      0.28835871872024
  31     0.033930165413809
  32    0.0057978806827301
  33    -0.043681499121802
  34    -0.082124193843088
  35     -0.11077050461743
  36    -0.029995701855236
  37    -0.047404181511219
  38     0.045116213980109
  39     -0.09156851192204
  40      -0.2037595283656
  41    -0.0069802193552219
  42     0.058242651653131
  43     0.045584884532226
  44     -0.88792983687593
  45      -1.5126475904422
  46    -0.021828569073795
  47     0.048325804211563
  48      0.17225777640779
  49      0.55804806494177
  50      0.91386054019826
  51     0.011662799190146
  52     -0.24981184667876
  53     -0.10706109479967
  54      0.32331023937863
  55      0.62451580801819
  56    -0.0080778516198704
  57      0.14581472888334
  58      -0.2239370605653
 Sym= A
 Ene=              13
 Spin= Alpha
 Occup=    0.00000
   1    -0.024975432392512
   2    -0.030545906758619
   3      0.50865352235381
   4     -0.56824575671375
   5    0.0091228407600956
   6      0.02524365411339
   7       3.3671957542761
   8    -0.028058841392178
   9    -0.078126535368328
  10     -0.20915005206541
  11    -0.0040027562712162
  12    -0.012153383515399
  13      0.41039638442324
  14     0.023254051475716
  15     0.015459906370613
  16    -0.036298306689527
  17      -2.2067373266065
  18      0.29485702948209
  19    -0.0021181991956788
  20    0.0030550606757001
  21       1.5344249621586
  22    0.0040846633100717
  23     0.031606254803941
  24     0.064885238628222
  25    -0.0033229001818089
  26    0.00063981747021583
  27     -0.11374600577712
  28    0.0043505825527958
  29     0.037462007798952
  30     -0.31144833932595
  31    -0.0078673250091379
  32    -0.0020473040540475
  33     0.028167878596737
  34      0.04631624930874
  35      -0.2940585095024
  36    -0.0068751013142401
  37    -0.021840930535734
  38    -0.016333113249928
  39     0.044576188584304
  40       -0.293930240292
  41    -0.0092226989283119
  42     0.023618776293441
  43    -0.015824687799765
  44      0.27261278574842
  45      0.72820341865444
  46     -0.14490049860872
  47    -0.011063234154863
  48     -0.10501097817652
  49      0.26346908640468
  50      0.67398790762842
  51     -0.14674703585996
  52    -0.077527437151416
  53     0.083109257409649
  54      0.25969568737889
  55      0.66030749583987
  56     -0.13787188113556
  57      0.10132658731458
  58     0.042310116247007
 Sym= A
 Ene=              14
 Spin= Alpha
 Occup=    0.00000
   1    0.0017511603988991
   2    0.0052471953779184
   3     0.030181202789139
   4    0.0097119507731714
   5    -0.037086183484601
   6    0.0024657359672677
   7     0.022332484885971
   8      -0.9326370655065
   9     0.061440957951263
  10    -0.0097026207170374
  11    -0.011621757452367
  12     0.034703000379096
  13    0.00074029770282145
  14     0.040829546581807
  15    -0.0023310606763968
  16    -0.0048200157739747
  17     0.014563872535139
  18    -0.0036441093240464
  19     -0.48708999864849
  20    -0.046859947753452
  21     0.052747631523343
  22        2.961888491998
  23    -0.013461296392123
  24    -0.078051227501086
  25    -0.034845786289264
  26     -0.16918762552505
  27    -0.073598709530658
  28      0.66549146084831
  29     0.051815044162993
  30    -0.0068890473679236
  31    -0.011698601346358
  32     -0.28902430739261
  33    -0.024164996492763
  34      0.72075333640032
  35       1.3216201059118
  36    -0.012236994449199
  37     0.046049870335477
  38       0.1769723422754
  39     -0.80207364103971
  40      -1.3582876702866
  41     0.025712425333176
  42      0.06013844017268
  43     -0.21804300467062
  44     0.014903509839819
  45     -0.01358714641127
  46    -0.015345470454004
  47     0.075904574603633
  48     -0.01210486614181
  49      0.15118853320467
  50      0.28367864932435
  51    -0.018750964992521
  52    0.0033406359939508
  53     0.064284069607592
  54     -0.16613285664548
  55     -0.25634924823875
  56     0.034888711509212
  57    -0.025250642042533
  58    -0.036375040493833
 Sym= A
 Ene=              15
 Spin= Alpha
 Occup=    0.00000
   1    0.0040161416798247
   2    0.0067293377743936
   3    -0.079000628156919
   4    -0.0016077017600193
   5    -0.0044969251088867
   6    -0.032424379029243
   7    -0.051011795757941
   8    -0.067916797138057
   9     -0.91607889758303
  10    -0.030934770955342
  11     0.049461910640165
  12    -0.0097607855148295
  13    -0.016541684820291
  14    0.0072764311003088
  15    -0.010540425976552
  16    -0.020108706768461
  17     0.084557319135777
  18     0.022792398493937
  19     0.028634812180596
  20     -0.46963794678516
  21    -0.093430192443621
  22     0.011837251291133
  23       2.9433071460077
  24      0.16161200390938
  25      0.70248586020405
  26    -0.068983148021052
  27     0.077697551673696
  28     0.011946505816398
  29     -0.89801544645093
  30      -1.5325190995173
  31     0.028223609660398
  32     0.011586720014206