[Molden Format]
made by pyscf v[2.0.1]
[Atoms] (AU)
C   1   6     0.00000000000000     0.00000000000000     0.00000000000000
C   2   6     2.88195139270757     0.00000000000000     0.00000000000000
H   3   1     3.63065534584939     0.00000000000000     1.92469232395612
H   4   1     3.63065534584939    -1.66683244701491    -0.96234616197806
H   5   1     3.63065534584939     1.66683244701491    -0.96234616197806
H   6   1    -0.74870395314182    -1.66683244701490     0.96234616197806
H   7   1    -0.74870395314182     0.00000000000000    -1.92469232395612
H   8   1    -0.74870395314182     1.66683244701490     0.96234616197806
[GTO]
1 0
 s    8 1.00
                  6665  0.00069158396281299
                  1000  0.0053257961529341
                   228   0.027060721042034
                 64.71    0.10165684614077
                 21.06     0.2745748236174
                 7.495    0.44829431892377
                 2.797    0.28490261071525
                0.5215   0.015194859206082
 s    8 1.00
                  6665  -0.00029326965268655
                  1000  -0.0023180354739745
                   228  -0.011499786038565
                 64.71  -0.046826727009787
                 21.06   -0.12846616875047
                 7.495   -0.30126627246289
                 2.797   -0.25563070233011
                0.5215      1.093793361012
 s    1 1.00
                0.1596                   1
 p    3 1.00
                 9.439   0.056979251590039
                 2.002    0.31320721150073
                0.5456    0.76037674173753
 p    1 1.00
                0.1517                   1
 d    1 1.00
                  0.55                   1

2 0
 s    8 1.00
                  6665  0.00069158396281299
                  1000  0.0053257961529341
                   228   0.027060721042034
                 64.71    0.10165684614077
                 21.06     0.2745748236174
                 7.495    0.44829431892377
                 2.797    0.28490261071525
                0.5215   0.015194859206082
 s    8 1.00
                  6665  -0.00029326965268655
                  1000  -0.0023180354739745
                   228  -0.011499786038565
                 64.71  -0.046826727009787
                 21.06   -0.12846616875047
                 7.495   -0.30126627246289
                 2.797   -0.25563070233011
                0.5215      1.093793361012
 s    1 1.00
                0.1596                   1
 p    3 1.00
                 9.439   0.056979251590039
                 2.002    0.31320721150073
                0.5456    0.76037674173753
 p    1 1.00
                0.1517                   1
 d    1 1.00
                  0.55                   1

3 0
 s    3 1.00
                 13.01   0.033498726389998
                 1.962    0.23480080117413
                0.4446     0.8136829578829
 s    1 1.00
                 0.122                   1
 p    1 1.00
                 0.727                   1

4 0
 s    3 1.00
                 13.01   0.033498726389998
                 1.962    0.23480080117413
                0.4446     0.8136829578829
 s    1 1.00
                 0.122                   1
 p    1 1.00
                 0.727                   1

5 0
 s    3 1.00
                 13.01   0.033498726389998
                 1.962    0.23480080117413
                0.4446     0.8136829578829
 s    1 1.00
                 0.122                   1
 p    1 1.00
                 0.727                   1

6 0
 s    3 1.00
                 13.01   0.033498726389998
                 1.962    0.23480080117413
                0.4446     0.8136829578829
 s    1 1.00
                 0.122                   1
 p    1 1.00
                 0.727                   1

7 0
 s    3 1.00
                 13.01   0.033498726389998
                 1.962    0.23480080117413
                0.4446     0.8136829578829
 s    1 1.00
                 0.122                   1
 p    1 1.00
                 0.727                   1

8 0
 s    3 1.00
                 13.01   0.033498726389998
                 1.962    0.23480080117413
                0.4446     0.8136829578829
 s    1 1.00
                 0.122                   1
 p    1 1.00
                 0.727                   1

[5d]
[7f]
[9g]

[MO]
 Sym= A
 Ene=               0
 Spin= Alpha
 Occup=    1.00000
   1       1.0026227243193
   2    -0.0004134613331357
   3    -0.012703711434531
   4    0.00096722018211699
   5    -4.9033054213797e-08
   6    -6.2143144878094e-08
   7    -0.00015257546281022
   8    -2.3136276714988e-08
   9    -2.9116515987198e-08
  10    9.0430867759299e-05
  11    2.9436195934982e-09
  12    -2.7650701021572e-09
  13    -0.00015662407711684
  14    2.7284848868113e-09
  15    -1.0129754314998e-05
  16    -0.00043701773659056
  17    0.0018353809629029
  18    0.0011403047232504
  19    1.4945086903688e-08
  20    8.3865661336345e-09
  21    -0.00058986491591203
  22    7.9189722104003e-09
  23    5.1188914060621e-09
  24    0.00024900360471283
  25    3.3707437879205e-09
  26    -1.3238954276764e-09
  27    -0.00043128465966798
  28    2.9993316000783e-09
  29    3.673737867116e-05
  30    0.00019481243862263
  31    -3.7182246711237e-05
  32    5.5480714119153e-10
  33    -1.1108224128186e-05
  34    3.6705149850033e-05
  35    0.00019478760703607
  36    -3.7181051914591e-05
  37    9.6194927200303e-06
  38    5.5538715880747e-06
  39    3.6733947196381e-05
  40    0.00019480691397405
  41    -3.7182093828924e-05
  42    -9.6198845828814e-06
  43    5.5547384663012e-06
  44    -0.0029105116494265
  45    0.00073734816756836
  46    -0.00021442049813847
  47    -0.00068780264732195
  48    0.0003971002016184
  49    -0.0029104675113698
  50    0.00073736740183401
  51    -0.00021441899347727
  52    -1.551141737598e-09
  53    -0.00079420251269109
  54    -0.0029105874673548
  55    0.00073731302451232
  56    -0.00021442310150608
  57    0.00068780490487988
  58    0.00039710329612424
 Sym= A
 Ene=               1
 Spin= Alpha
 Occup=    1.00000
   1    -1.0127754061838e-05
   2    -0.00043721846840757
   3    0.0018352464432788
   4     -0.00114044736532
   5    -6.658549422457e-08
   6    1.5256868442218e-08
   7    0.00058980007132703
   8    -3.3119928533189e-08
   9    5.7330859071719e-09
  10    0.00024900890175868
  11    2.8155264694559e-09
  12    -4.6989548131525e-09
  13    -0.00043129616346553
  14    7.9587961820407e-09
  15       1.0026227274595
  16    -0.00041351829091708
  17    -0.012703762532498
  18    -0.00096700724516027
  19    1.0757211793922e-07
  20    7.053979208764e-08
  21    0.00015267385615579
  22    5.1416881357393e-08
  23    3.2567639920689e-08
  24    9.0441551667605e-05
  25    2.1338268543621e-09
  26    -6.4317915803525e-09
  27    -0.00015664220204656
  28    7.6331360306364e-09
  29    -0.0029104215879564
  30    0.00073739180947492
  31    0.00021442268150011
  32    3.4653318632829e-09
  33    0.00079419952313885
  34    -0.0029105973053546
  35    0.00073731236180911
  36    0.00021442869729824
  37    -0.00068780422504101
  38    -0.00039710379147499
  39    -0.0029104266482577
  40    0.00073739599262897
  41    0.00021442279708126
  42    0.00068779949735536
  43    -0.00039709706052383
  44    3.6733866800436e-05
  45    0.00019484079762785
  46    3.7177264040679e-05
  47    9.6145204967861e-06
  48    -5.5519110771443e-06
  49    3.6664703843649e-05
  50    0.00019481161673345
  51    3.7174914825416e-05
  52    -2.2673610045613e-09
  53    1.1098910403152e-05
  54    3.6619746219221e-05
  55    0.00019477620780861
  56    3.7173241280901e-05
  57    -9.6120360818331e-06
  58    -5.5478585765465e-06
 Sym= A
 Ene=               2
 Spin= Alpha
 Occup=    1.00000
   1    -0.0024800824227801
   2    -0.019992307519812
   3    -0.012483453944755
   4    -0.024133289466245
   5    -0.0011593087316675
   6    -0.0006696716938328
   7    -0.013606162034163
   8    0.0053172039114757
   9    0.0030696784236877
  10    -0.003898211075846
  11    -0.0084264667970723
  12    0.0031883153922294
  13    0.0030704424145003
  14    -0.014595310265639
  15    -0.0050117554554036
  16      0.18337193345227
  17      0.10557420573552
  18      0.12357214393487
  19     -0.30044350050061
  20     -0.17345856160903
  21     0.061056885767224
  22     -0.13995655471035
  23    -0.080802748441612
  24    -0.0043128396884021
  25    -0.0070429268089888
  26      0.01593951023137
  27    -0.010935022764946
  28    -0.012198918025411
  29    -0.019610507734275
  30    -0.037142193414639
  31    0.0025760207472715
  32    -0.0093333973817811
  33    -0.0079706924175262
  34      0.43309054778515
  35      0.16026969300559
  36    -0.012857716602462
  37     0.026019855024302
  38     0.015022650927244
  39    -0.019613906209745
  40    -0.037143717605501
  41    0.0025761369860144
  42    -0.011569345803755
  43    -0.0040976334428158
  44    -0.012610897691006
  45    -0.013967250610774
  46    -0.0019276105029912
  47    0.00087384285688166
  48    9.3662371376908e-05
  49    -0.012610162898977
  50    -0.013966623525041
  51    -0.0019275827194997
  52    0.0005180488027944
  53    0.00070994606770461
  54     0.024065825410182
  55     0.043331685090545
  56    -0.00030915127588971
  57    0.0011829059609473
  58    0.00068293562351242
 Sym= A
 Ene=               3
 Spin= Alpha
 Occup=    1.00000
   1    -0.0050119368959121
   2      0.18337124204841
   3      0.10557370090896
   4     -0.12357326730223
   5     -0.30044144440355
   6      0.17346223389983
   7    -0.061057407464996
   8     -0.13995561972134
   9     0.080804459781085
  10    -0.004312962218536
  11    -0.0070430775763995
  12    -0.015939413804112
  13    -0.010935200928021
  14     0.012198891561825
  15    -0.0024800633886324
  16    -0.019992762680594
  17    -0.012483824579099
  18     0.024134527919285
  19    -0.0011581308317226
  20    0.00066965177747456
  21     0.013606739003719
  22    0.0053177126200711
  23    -0.0030697592965074
  24    -0.0038981929859659
  25    -0.0084266465845111
  26    -0.0031883556922305
  27     0.003070329521347
  28     0.014595258106252
  29    -0.012610273898415
  30    -0.013966902157283
  31    0.0019276220000562
  32    0.00051808161129863
  33    -0.00070996762042611
  34    -0.012611332194705
  35    -0.013967092044768
  36    0.0019276556598627
  37    0.00087381241196377
  38    -9.3706281968578e-05
  39      0.02406690337541
  40     0.043332221155003
  41    0.00030914738209821
  42    0.0011828660883234
  43    -0.00068290105225496
  44      0.43309069727747
  45      0.16026994024025
  46     0.012857690178051
  47     0.026019910474459
  48    -0.015022533165701
  49    -0.019613679812428
  50    -0.037143479119518
  51    -0.0025761611653251
  52    -0.0093333356659304
  53    0.0079705274962417
  54    -0.019610808245025
  55    -0.037142345463524
  56    -0.0025760643227328
  57    -0.011569507938778
  58    0.0040976183464965
 Sym= A
 Ene=               4
 Spin= Alpha
 Occup=    1.00000
   1    -0.0024801625518882
   2    -0.019991168727645
   3    -0.012482696519568
   4    -0.024132578241154
   5    2.7330873025573e-06
   6     0.001338985178491
   7    -0.013605842468287
   8    1.2542408663742e-06
   9    -0.0061396008890015
  10    0.00088416146602059
  11     0.016853141068553
  12    1.3450063463444e-07
  13      0.00583162552224
  14    -6.3669247935009e-08
  15    -0.0050121599706467
  16      0.18337234504814
  17        0.105574545846
  18      0.12357107783789
  19    9.8111798471845e-07
  20      0.34692108046166
  21     0.061056396280498
  22    4.0382787003682e-07
  23      0.16160734757983
  24     0.019596190700112
  25     0.014086032496172
  26    -2.2528921740795e-08
  27    0.0028689905021125
  28    -9.3180553725356e-08
  29      0.43309048197235
  30      0.16026960179798
  31     -0.01285774091694
  32    2.5445503021567e-08
  33    -0.030045181446834
  34    -0.019612944948916
  35    -0.037143133386713
  36     0.002576075628394
  37    0.0022360313829177
  38     0.012068199984265
  39    -0.019611815666858
  40    -0.037143016165446
  41    0.0025760404718365
  42    -0.0022360967497467
  43     0.012068267105757
  44    -0.012612129522178
  45    -0.013967742047072
  46    -0.0019276258563305
  47    0.00035578694446031
  48    -0.00080354445883961
  49     0.024066026900785
  50     0.043331609978336
  51    -0.00030911962338935
  52    8.3114541175041e-08
  53    -0.0013658511727277
  54    -0.012608135468675
  55    -0.013966133774054
  56    -0.0019274908778322
  57    -0.00035592486269107
  58    -0.00080372005837298
 Sym= A
 Ene=               5
 Spin= Alpha
 Occup=    1.00000
   1    -0.0050117446916965
   2      0.18337112672681
   3      0.10557354511767
   4     -0.12357425858986
   5      0.30044277628777
   6      0.17345943034629
   7     -0.06105785277306
   8      0.13995620560445
   9     0.080803218277628
  10    -0.0043127963631707
  11    -0.0070431249475289
  12      0.01593946529376
  13    -0.010935262279756
  14    -0.012198859262818
  15    -0.0024797870744904
  16    -0.019994832985583
  17     -0.01248511615113
  18     0.024134563153895
  19    0.0011599083047295
  20    0.00066633330457639
  21     0.013606728201869
  22    -0.005316910446352
  23    -0.0030712507439286
  24    -0.0038983085946979
  25    -0.008426645312934
  26    0.0031882757241504
  27    0.0030702380243949
  28    -0.014595250512715
  29    -0.012613968678773
  30    -0.013967973374785
  31    0.0019277604555249
  32    -0.00051802883697348
  33    -0.0007096868708947
  34     0.024065975421089
  35     0.043332115291158
  36    0.00030919365856437
  37    -0.0011829172390019
  38    -0.00068305899643097
  39    -0.012609751334572
  40    -0.013966286043434
  41    0.0019276180276589
  42    -0.00087385557782442
  43    -9.3748833923383e-05
  44    -0.019612543670578
  45    -0.037142856576681
  46    -0.002576140806969
  47     0.011569393487467
  48     0.004097625432482
  49    -0.019611233082299
  50    -0.037142682149056
  51    -0.002576099663977
  52    0.0093333737729462
  53    0.0079706770059673
  54      0.43309074205199
  55      0.16026996176422
  56     0.012857672214176
  57    -0.026019871887257
  58    -0.015022613882071
 Sym= A
 Ene=               6
 Spin= Alpha
 Occup=    1.00000
   1    -0.0050120097543999
   2      0.18337094749708
   3      0.10557330276723
   4     -0.12357625295273
   5    -1.7509909774796e-06
   6     -0.34692016414807
   7    -0.061058798647897
   8    -8.3276577180022e-07
   9     -0.16160692897232
  10     0.019596392812906
  11     0.014086015894445
  12    -1.0238132568217e-07
  13    0.0028685523513051
  14    1.1383351348268e-07
  15    -0.002479857367605
  16     -0.01999514508878
  17    -0.012485438440776
  18     0.024136492137573
  19    8.7016046914705e-07
  20    -0.0013385588931366
  21     0.013607643215473
  22    4.3955176291503e-07
  23    0.0061397816348232
  24    0.00088433712860808
  25     0.016853113799174
  26    -6.5141481427647e-08
  27    0.0058313467096087
  28    1.2083217235558e-07
  29     0.024065641856676
  30     0.043331964696973
  31    0.00030925704522137
  32    3.0267214784741e-08
  33    0.0013659603981532
  34    -0.012611740256432
  35    -0.013967128081668
  36    0.0019277375786512
  37    0.00035571318788305
  38    0.00080354394279102
  39    -0.012610204743652
  40     -0.01396621728963
  41    0.0019276830799073
  42    -0.0003557433558749
  43    0.00080359630985835
  44    -0.019609640350416
  45    -0.037141671204138
  46    -0.0025760946315798
  47    0.0022361877189156
  48    -0.012068309588631
  49       0.4330906977795
  50      0.16026989470292
  51     0.012857618192101
  52    -5.6012425585118e-08
  53     0.030045204403522
  54      -0.0196123908715
  55    -0.037142991200256
  56    -0.0025761894781589
  57    -0.0022361093415051
  58    -0.012068199659834
 Sym= A
 Ene=               7
 Spin= Alpha
 Occup=    1.00000
   1    -0.0024800812408665
   2    -0.019994839572573
   3    -0.012485058524844
   4    -0.024133832404523
   5    0.0011590275731225
   6    -0.00066969289236462
   7    -0.013606395868972
   8    -0.0053172807241749
   9     0.003069721667028
  10    -0.0038982173304737
  11    -0.0084265987254541
  12     -0.00318830025846
  13    0.0030703965530704
  14     0.014595186287665
  15    -0.0050121011792714
  16      0.18337241817646
  17      0.10557435695446
  18      0.12357416263803
  19        0.300440721343
  20     -0.17346128631793
  21     0.061057823275463
  22      0.13995526535879
  23    -0.080804017493141
  24    -0.0043128580063975
  25    -0.0070430369196979
  26    -0.015939365713238
  27    -0.010935279915529
  28     0.012198818363252
  29    -0.019611992227914
  30    -0.037142947055549
  31    0.0025761119541919
  32    0.0093333115448694
  33    -0.0079706637048401
  34    -0.019609759863746
  35    -0.037142035636273
  36    0.0025760364001841
  37     0.011569575515441
  38    -0.0040975358852143
  39      0.43309054111799
  40      0.16026960112675
  41    -0.012857675932743
  42    -0.026019949264966
  43     0.015022571154687
  44     0.024064881809597
  45     0.043331586955485
  46    -0.00030921693592083
  47    -0.0011830146061247
  48    0.00068300063115732
  49    -0.012611414786545
  50    -0.013966989531575
  51    -0.0019276600788176
  52    -0.00051805241383494
  53    0.00070981692515688
  54    -0.012611909646229
  55    -0.013966996617259
  56    -0.0019276750901012
  57    -0.00087370218618064
  58    9.3750038637228e-05
 Sym= A
 Ene=               8
 Spin= Alpha
 Occup=    1.00000
   1    -0.0055374385340428
   2      0.19643528005782
   3      0.14788789548593
   4      0.36762427646604
   5    8.3183168704097e-07
   6    -1.8738069658842e-06
   7      0.17054033930923
   8    3.6379057160439e-07
   9    -8.3948057970729e-07
  10    -0.015936896278338
  11    -7.4157757423844e-09
  12    3.0979396026193e-08
  13     0.027603675828078
  14    2.5482697432941e-08
  15    -0.0055368524773298
  16      0.19643167438726
  17      0.14788579445564
  18     -0.36762604067172
  19    1.2190838126934e-06
  20    -1.7204807289446e-06
  21     -0.17054118021804
  22    5.517643228682e-07
  23    -7.6505539956673e-07
  24    -0.015937133652424
  25    2.1142723111493e-08
  26    -5.5729421155985e-08
  27     0.027603783052721
  28    9.1870990818171e-09
  29    -0.022426369555672
  30    -0.037538577343502
  31    -0.009438768346361
  32    3.6345954827561e-08
  33    -0.0013436077703119
  34    -0.022425196833714
  35    -0.037538231401441
  36    -0.0094388068531544
  37    0.0011636921284814
  38    0.00067178697525569
  39    -0.022423465716174
  40    -0.037537590218717
  41    -0.0094388648581017
  42    -0.0011637562719232
  43    0.00067186597718243
  44    -0.022423975260797
  45    -0.037538131762722
  46    0.0094388406449387
  47    0.0011638181750314
  48    -0.00067197216283636
  49    -0.022421170907868
  50    -0.037537196418551
  51    0.0094389336901054
  52    2.3598895204829e-08
  53    0.0013440458343889
  54     -0.02242287736715
  55    -0.037537820159376
  56    0.0094388765854252
  57    -0.0011638662818428
  58    -0.00067202718697414
 Sym= A
 Ene=               9
 Spin= Alpha
 Occup=    0.00000
   1     -0.16467946842463
   2     -0.21138823051645
   3       3.6231602540526
   4       0.3250365951344
   5    3.0077676895217e-05
   6    -0.00046989701683238
   7       1.7678413269121
   8    2.8982703696974e-06
   9    -0.00064359130748744
  10    -0.082773725925748
  11    0.00035577119814843
  12    0.00017408661486808
  13      0.14957029118056
  14    7.2890129356469e-05
  15      0.28075624249809
  16      0.53847027192144
  17      -2.1151642079673
  18     -0.34618401655904
  19    0.00016890777226046
  20    -0.00012485970222316
  21       3.6662975502246
  22    0.00044135092820792
  23    -0.00068189356998376
  24      0.13190107528604
  25    -0.00018347988981043
  26    -0.00092369739136143
  27     -0.23048471526425
  28    0.00034068547057667
  29     -0.16789938656791
  30     -0.49398350486706
  31     -0.30041905991826
  32    0.00015459264222085
  33      0.18415064791159
  34     -0.16832843929624
  35     -0.49435566749211
  36     -0.30021733912154
  37     -0.15945465723816
  38    -0.092289838323391
  39     -0.16936221956437
  40     -0.49465205563362
  41     -0.29995188622606
  42       0.1599190849118
  43    -0.092377997986304
  44     -0.15186170800233
  45      0.12391740414516
  46    0.0090945278401342
  47    0.0035526854356801
  48    -0.0027405694738768
  49      -0.1541629558323
  50      0.12359944378235
  51    0.0081890406739754
  52    4.6868937101401e-05
  53    0.0034778048085799
  54     -0.15194466970066
  55      0.12387254710649
  56    0.0089946689351481
  57    -0.0035166587954099
  58    -0.0027735619244077
 Sym= A
 Ene=              10
 Spin= Alpha
 Occup=    0.00000
   1     0.056996810961195
   2     0.064414489892332
   3      -1.1440194043717
   4     -0.12830555885549
   5      0.02393178454736
   6    -0.013570867993823
   7     -0.44573204423741
   8      -0.5459346798632
   9      0.31579716053252
  10     0.037375755948037
  11     0.057540386587273
  12      0.03579991619242
  13    -0.026247365744163
  14     -0.10009102037136
  15     -0.40849437686877
  16     -0.72180404107031
  17       3.4001291223609
  18      0.16243454002443
  19     0.066166675963987
  20    -0.038173600519829
  21    -0.099676789317049
  22       2.2638285545977
  23      -1.3073254597973
  24     -0.12501444687618
  25     -0.15371339549866
  26     -0.31200939034065
  27     -0.14348194717488
  28      0.26612016286329
  29    -0.051504896488466
  30      0.27277849179178
  31    -0.036633559939479
  32     -0.25262745764113
  33     0.017417498054283
  34    -0.051590468665153
  35      0.27259401666488
  36    -0.036757521047796
  37     -0.14150854101635
  38      0.21014696975813
  39      -1.6552131220018
  40      -1.8193201656904
  41      0.25515673039184
  42      0.40295638716864
  43     -0.23257946875462
  44     0.078208022611336
  45    -0.026521486278344
  46     0.099861695816977
  47     0.045344182341694
  48    -0.025903339227545
  49     0.054100266355399
  50       0.0740932592047
  51    -0.051896163025297
  52     0.053693538653538
  53    -0.016574678009764
  54     0.052903948304738
  55      0.07379367797384
  56     -0.05227122365044
  57     0.041506612524412
  58    -0.037752808161483
 Sym= A
 Ene=              11
 Spin= Alpha
 Occup=    0.00000
   1    -0.056934096051697
   2    -0.064289367709756
   3       1.1441304953812
   4      0.12846250657044
   5     0.023833109099134
   6      0.01358395889143
   7       0.4458658838755
   8      -0.5460977725474
   9     -0.31542185022706
  10    -0.037540224321747
  11     -0.05755346319997
  12     0.035474137759166
  13     0.026383659612452
  14    -0.099899733615435
  15      0.40849557631427
  16      0.72178871762306
  17      -3.4001061361134
  18     -0.16245241227343
  19     0.065692229026853
  20     0.038311768213769
  21     0.099721853052518
  22       2.2632722212082
  23       1.3068428174037
  24       0.1257981697896
  25       0.1537494480888
  26     -0.30820295749507
  27      0.14279398179208
  28      0.26609355914528
  29     0.051327870300884
  30     -0.27253023994608
  31     0.036892657368843
  32     -0.25360158704642
  33     -0.01734526911411
  34       1.6537229352995
  35       1.8191627926575
  36     -0.25434472300918
  37      0.40218931157078
  38      0.23284172869664
  39     0.052845965662186
  40     -0.27266736676641
  41     0.036320639293938
  42     -0.14218957121416
  43     -0.21017093860747
  44    -0.053146613622109
  45    -0.073965367390283
  46     0.052223619705475
  47     0.041394931558504
  48     0.037773653040413
  49      -0.0539561178664
  50    -0.073942234817144
  51     0.051907245508507
  52      0.05366898511646
  53     0.016607065161628
  54    -0.078035115020602
  55     0.026553910191315
  56    -0.099810871862165
  57     0.045273579295709
  58     0.025846572155036
 Sym= A
 Ene=              12
 Spin= Alpha
 Occup=    0.00000
   1     -0.40849901048606
   2     -0.72180845402527
   3       3.4001929353132
   4     -0.16243537738383
   5    5.0767675509883e-05
   6    -0.076369972344205
   7     0.099703894487187
   8    -0.0015449648844933
   9      -2.6141919184384
  10      0.34280188250195
  11      0.30729440597153
  12    -0.00024133692852341
  13       0.1266334400253
  14    0.00015318892231006
  15     0.057006559516005
  16     0.064429225753653
  17      -1.1441113581359
  18      0.12830933521667
  19    -0.00023995180664308
  20    -0.027523962099775
  21      0.44576856977011
  22    0.00022603861967918
  23      0.63070521769022
  24     -0.01447450583157
  25     -0.11546699913495
  26    0.0012321625900833
  27    -0.056198297707959
  28    -0.00024657628827292
  29     0.078225954076511
  30    -0.026522723317183
  31    -0.099843612106831
  32    -0.00032055315944058
  33    -0.052245740046514
  34     0.052995811331537
  35      0.07400321035049
  36     0.052313242157492
  37     0.011921978332376
  38     -0.05478938167622
  39     0.054016766269618
  40     0.073893883100739
  41     0.051850511263116
  42    -0.012501498342429
  43    -0.054830587668526
  44    -0.052062974412815
  45      0.27199966763377
  46     0.036636477460787
  47      0.11116695654683
  48       0.2277250118668
  49       -1.655195316822
  50      -1.8192986998918
  51     -0.25515109037939
  52    0.00017896670502987
  53     -0.46521696315712
  54    -0.051075290958615
  55      0.27336932159542
  56     0.036827391405326
  57     -0.11127497977809
  58       0.2274697819236
 Sym= A
 Ene=              13
 Spin= Alpha
 Occup=    0.00000
   1     -0.28076106378772
   2     -0.53848445482525
   3       2.1151442338276
   4     -0.34618483738462
   5    -3.5809029181075e-05
   6    0.00021867767921003
   7       3.6662831778573
   8    -0.00036176455223226
   9    0.00072072597271199
  10     -0.13388700521377
  11    -0.00041129636071496
  12    -0.00041258958238262
  13      0.22933673051779
  14    8.0648024259802e-06
  15      0.16467856517785
  16        0.211388796155
  17      -3.6231382627849
  18      0.32503952520991
  19    -0.00038590230059977
  20    0.00024247808559094
  21       1.7678161275282
  22    -0.0005830622039715
  23    0.00034486426787178
  24     0.086921354787313
  25    9.4155221015192e-05
  26    0.0026190442585625
  27     -0.14717006886686
  28    -0.00032896937976767
  29      0.15187009853697
  30     -0.12392194238749
  31    0.0091095439952276
  32    -0.00059992657231175
  33    0.0044149393282913
  34      0.15193046114617
  35     -0.12387580920424
  36     0.009001793904247
  37    -0.0041634353445203
  38    -0.0016619604820547
  39      0.15416246676657
  40     -0.12358456431864
  41    0.0081731420072927
  42     0.003057305578164
  43    -0.0017169442050103
  44      0.16790303147245
  45      0.49396836438688
  46     -0.30040891841927
  47      0.15952345913916
  48    -0.091928824245844
  49      0.16936403937997
  50      0.49466426255686
  51       -0.299960363646
  52    -4.0545139230535e-05
  53      0.18471812420043
  54      0.16834069952394
  55      0.49435055585042
  56     -0.30021370357617
  57     -0.15965316029531
  58    -0.091957898060238
 Sym= A
 Ene=              14
 Spin= Alpha
 Occup=    0.00000
   1     -0.40848581813005
   2     -0.72176917566642
   3       3.4000408671973
   4     -0.16245208847458
   5     0.065985503913173
   6     0.037831152082626
   7     0.099714403399372
   8       2.2643222859601
   9       1.3050479071198
  10     -0.12252838799486
  11     -0.15345508589672
  12      0.31038382395641
  13     -0.14091414417568
  14     -0.26626353434327
  15     0.056936940375704
  16      0.06429593576166
  17      -1.1441272086827
  18      0.12846090084244
  19     0.023699233679475
  20     0.013817582667618
  21      0.44584481695711
  22     -0.54659982731117
  23     -0.31455101537527
  24     0.039054935217988
  25     0.057675129681358
  26    -0.034451707966206
  27    -0.025502005332286
  28      0.09983356207278
  29     0.053063234413813
  30      0.07375452172193
  31      0.05218948651098
  32     0.053447608823415
  33     0.016947157613534
  34      0.07803711103392
  35    -0.026543772851925
  36    -0.099809941099114
  37     0.045060162282743
  38     0.026220062194147
  39     0.054048257509387
  40     0.074154691321991
  41     0.051940881609166
  42     0.041207009486114
  43      0.03813135071878
  44    -0.050778958886121
  45       0.2733190813625
  46      0.03705621310102
  47     -0.14173893078081
  48     -0.21095029587235
  49    -0.053368004342719
  50      0.27189719990284
  51     0.036159783455372
  52     -0.25315510439688
  53    -0.018116929473452
  54       -1.653732602652
  55      -1.8191594508679
  56     -0.25434799022541
  57      0.40264123373233
  58      0.23206778471926
 Sym= A
 Ene=              15
 Spin= Alpha
 Occup=    0.00000
   1     0.056883336079392
   2     0.064188873884587
   3      -1.1434204626682
   4     -0.12835587330301
   5    7.925855525571e-05
   6      0.02763186842282
   7     -0.44572938194312
   8    -0.00028751938613341
   9     -0.63025923508003
  10     -0.01548838686787
  11     -0.11539394231133
  12    0.00018076735435675
  13    -0.057455334547412
  14    -9.6614829585142e-05
  15     -0.40838422252748
  16      -0.7215714783397
  17       3.3995703012892
  18      0.16228035404066
  19    0.00031955121881213
  20     0.076039045187506
  21      -0.0992009223595
  22    0.00084255780787192
  23       2.6135795097197
  24        0.339724528814
  25      0.30734527803655
  26    -0.0022792134080137
  27      0.12607383499164
  28    0.00012304760097503
  29      -1.6537598489468
  30      -1.8192629063334
  31      0.25431734043846