[Molden Format]
made by pyscf v[2.0.1]
[Atoms] (AU)
C   1   6     0.00000000000000     0.00000000000000     0.00000000000000
C   2   6     2.88195139270757     0.00000000000000     0.00000000000000
H   3   1     3.63065534584939     0.00000000000000     1.92469232395612
H   4   1     3.63065534584939    -1.66683244701491    -0.96234616197806
H   5   1     3.63065534584939     1.66683244701491    -0.96234616197806
H   6   1    -0.74870395314182    -1.92469232395612    -0.00000000000000
H   7   1    -0.74870395314182     0.96234616197806    -1.66683244701490
H   8   1    -0.74870395314182     0.96234616197806     1.66683244701490
[GTO]
1 0
 s    8 1.00
                  6665  0.00069158396281299
                  1000  0.0053257961529341
                   228   0.027060721042034
                 64.71    0.10165684614077
                 21.06     0.2745748236174
                 7.495    0.44829431892377
                 2.797    0.28490261071525
                0.5215   0.015194859206082
 s    8 1.00
                  6665  -0.00029326965268655
                  1000  -0.0023180354739745
                   228  -0.011499786038565
                 64.71  -0.046826727009787
                 21.06   -0.12846616875047
                 7.495   -0.30126627246289
                 2.797   -0.25563070233011
                0.5215      1.093793361012
 s    1 1.00
                0.1596                   1
 p    3 1.00
                 9.439   0.056979251590039
                 2.002    0.31320721150073
                0.5456    0.76037674173753
 p    1 1.00
                0.1517                   1
 d    1 1.00
                  0.55                   1

2 0
 s    8 1.00
                  6665  0.00069158396281299
                  1000  0.0053257961529341
                   228   0.027060721042034
                 64.71    0.10165684614077
                 21.06     0.2745748236174
                 7.495    0.44829431892377
                 2.797    0.28490261071525
                0.5215   0.015194859206082
 s    8 1.00
                  6665  -0.00029326965268655
                  1000  -0.0023180354739745
                   228  -0.011499786038565
                 64.71  -0.046826727009787
                 21.06   -0.12846616875047
                 7.495   -0.30126627246289
                 2.797   -0.25563070233011
                0.5215      1.093793361012
 s    1 1.00
                0.1596                   1
 p    3 1.00
                 9.439   0.056979251590039
                 2.002    0.31320721150073
                0.5456    0.76037674173753
 p    1 1.00
                0.1517                   1
 d    1 1.00
                  0.55                   1

3 0
 s    3 1.00
                 13.01   0.033498726389998
                 1.962    0.23480080117413
                0.4446     0.8136829578829
 s    1 1.00
                 0.122                   1
 p    1 1.00
                 0.727                   1

4 0
 s    3 1.00
                 13.01   0.033498726389998
                 1.962    0.23480080117413
                0.4446     0.8136829578829
 s    1 1.00
                 0.122                   1
 p    1 1.00
                 0.727                   1

5 0
 s    3 1.00
                 13.01   0.033498726389998
                 1.962    0.23480080117413
                0.4446     0.8136829578829
 s    1 1.00
                 0.122                   1
 p    1 1.00
                 0.727                   1

6 0
 s    3 1.00
                 13.01   0.033498726389998
                 1.962    0.23480080117413
                0.4446     0.8136829578829
 s    1 1.00
                 0.122                   1
 p    1 1.00
                 0.727                   1

7 0
 s    3 1.00
                 13.01   0.033498726389998
                 1.962    0.23480080117413
                0.4446     0.8136829578829
 s    1 1.00
                 0.122                   1
 p    1 1.00
                 0.727                   1

8 0
 s    3 1.00
                 13.01   0.033498726389998
                 1.962    0.23480080117413
                0.4446     0.8136829578829
 s    1 1.00
                 0.122                   1
 p    1 1.00
                 0.727                   1

[5d]
[7f]
[9g]

[MO]
 Sym= A
 Ene=               0
 Spin= Alpha
 Occup=    1.00000
   1       1.0026280368774
   2    -0.00040335655860443
   3    -0.012735922758196
   4    0.00097025425496621
   5     1.64417486641e-07
   6    4.2186754109561e-08
   7    -0.00016082468977359
   8    7.8914354228829e-08
   9    1.9029341762892e-08
  10    8.9891748486106e-05
  11    -1.0928094822982e-09
  12    2.6752955302146e-09
  13    -0.00015567933173033
  14    -9.5050645812977e-09
  15    -1.9269640685288e-05
  16    -0.00045337726539467
  17    0.0019147671207396
  18    0.0011439409829473
  19    -6.0279538286707e-08
  20    1.2554592943224e-08
  21    -0.00058480842742668
  22    -3.2818758010652e-08
  23    3.1271651007559e-09
  24    0.00025458523160323
  25    -1.4361547380997e-09
  26    4.2598069548035e-09
  27    -0.00044095185931687
  28    -1.0341526075713e-08
  29    2.4882324108844e-05
  30    0.00017951308355517
  31    -3.0804145865209e-05
  32    -5.6839550268143e-06
  33    -1.0829727085746e-05
  34    2.4925302588515e-05
  35    0.00017954506266366
  36    -3.0805085426732e-05
  37    1.2219820861739e-05
  38    4.9587931249204e-07
  39    2.4814091091694e-05
  40    0.00017947553359473
  41    -3.0801470859509e-05
  42    -6.5359742975688e-06
  43    1.0333562821023e-05
  44    -0.0029104991094005
  45    0.00074007940841296
  46    -0.00021494827998504
  47    -0.00079276483124719
  48    5.6931137923207e-07
  49    -0.0029103097232729
  50    0.00074016909026666
  51    -0.0002149420231446
  52    0.00039589059591858
  53    -0.00068682838428427
  54    -0.0029102469699464
  55    0.00074019538224083
  56    -0.00021493969968937
  57    0.0003968718007748
  58    0.00068625832089593
 Sym= A
 Ene=               1
 Spin= Alpha
 Occup=    1.00000
   1    -1.9278097888449e-05
   2    -0.00045308696542062
   3    0.0019149650082109
   4    -0.0011436942190952
   5    1.1599442457011e-08
   6    4.7727614554782e-08
   7    0.0005849216980536
   8    9.7359407544798e-09
   9    2.3281565984238e-08
  10    0.00025457394687339
  11    -5.2375944071201e-09
  12    3.5134869206277e-09
  13    -0.00044093324367672
  14    -6.3636048856489e-09
  15       1.0026280319667
  16    -0.00040324893013921
  17    -0.012735832074733
  18    -0.00097059031054264
  19    -1.2346482218465e-07
  20    -6.7712479673036e-08
  21    0.00016066973977721
  22    -5.7980670200539e-08
  23    -3.3244529983623e-08
  24    8.9864695134747e-05
  25    -5.0251902823104e-09
  26    6.8178534629201e-09
  27    -0.00015565729271459
  28    -5.5241310616567e-09
  29    -0.0029104691194205
  30    0.00074008039367177
  31    0.00021493867928506
  32    -5.7184162292215e-07
  33    0.00079276375871961
  34    -0.0029102822375574
  35    0.0007401679416487
  36    0.00021493239660944
  37    -0.00068626208231535
  38    -0.00039686941102936
  39    -0.0029104699830231
  40    0.00074008423021149
  41    0.00021493887083962
  42    0.0006868359350861
  43    -0.0003958934857107
  44    2.4918317903784e-05
  45    0.00017947903885858
  46    3.081328008544e-05
  47    1.0839807106789e-05
  48    5.6835095975783e-06
  49    2.4905878970329e-05
  50    0.00017948118606138
  51    3.0812419196871e-05
  52    -1.0338837400053e-05
  53    6.5460871512896e-06
  54    2.4986665223102e-05
  55    0.00017952646517993
  56    3.0815374692994e-05
  57    -5.004328966991e-07
  58    -1.2229809271202e-05
 Sym= A
 Ene=               2
 Spin= Alpha
 Occup=    1.00000
   1    -0.0024457745070437
   2    -0.020093718700801
   3    -0.013031065701456
   4    -0.024276420868134
   5    -0.00084703646597963
   6    0.00043172522049503
   7    -0.014283736760625
   8    -0.0036834307480958
   9     -0.01016116760407
  10    -0.00080878861666651
  11     0.016657109034114
  12    -0.0019477102841414
  13    0.0048977093992273
  14    -0.00022747238562295
  15    -0.0050886208378539
  16      0.18311811778163
  17       0.1062083441423
  18      0.12360569246253
  19    -0.0011252234086859
  20      0.34721716843099
  21     0.060650655336382
  22    -0.00017839194589432
  23      0.16318802787564
  24     0.019303909025027
  25     0.013904487642224
  26    -0.00046864575355667
  27    0.0025742548854085
  28    -7.2793345854008e-05
  29      0.43305523045567
  30      0.16012978134421
  31    -0.012755379953627
  32    -0.00015253281566319
  33    -0.030152502928415
  34    -0.019403128513364
  35    -0.036531294363478
  36    0.0025869468933932
  37    0.0022339846040945
  38     0.012130696761745
  39    -0.019870331944575
  40    -0.037223664524363
  41    0.0025653861480896
  42    -0.0020901030763524
  43     0.011981745179216
  44    -0.0004481917724559
  45    0.0020460040605299
  46    -0.001825055561991
  47    0.0001872284168142
  48    -0.00048355524621655
  49      0.02096421340405
  50     0.037240340105744
  51    -0.00058596966094343
  52    0.00051782004078738
  53    -0.00098385918407631
  54    -0.021286227417043
  55    -0.024472393344631
  56    -0.0014606479597711
  57    -0.00021622784762626
  58    -0.00085822375694232
 Sym= A
 Ene=               3
 Spin= Alpha
 Occup=    1.00000
   1    -0.0050885499647474
   2      0.18311917572623
   3      0.10620911995589
   4     -0.12360394772426
   5      -0.3472170840298
   6    0.0011275958226835
   7    -0.060649842686056
   8     -0.16318798943118
   9    0.00017948884004048
  10    -0.011881392009596
  11    -7.2862450252387e-05
  12    -0.00046852460202755
  13    -0.015430421927039
  14     0.013904473521105
  15    -0.0024459562202143
  16    -0.020093071118301
  17    -0.013030526901233
  18     0.024274476096386
  19    -0.00043193231163308
  20    0.00084758104920333
  21     0.014282830288926
  22     0.010161090932509
  23    0.0036836153512777
  24    -0.0038372166744234
  25    -0.00022756447032633
  26    -0.0019476876776893
  27    0.0031494388219226
  28     0.016657095151502
  29    -0.00044819939233417
  30    0.0020457436726749
  31    0.0018250020230954
  32    0.00048354768007643
  33    -0.00018724195418837
  34    -0.021286526894236
  35    -0.024472503171672
  36    0.0014606047625944
  37     0.000858193092296
  38    0.00021622862623672
  39     0.020963583421655
  40     0.037240042671333
  41    0.00058594372233575
  42    0.00098389721110359
  43    -0.00051783250524534
  44      0.43305509787914
  45      0.16012954856527
  46     0.012755425143528
  47     0.030152513325986
  48    0.00015260617835332
  49    -0.019872089872339
  50     -0.03722453991691
  51    -0.002565395998469
  52    -0.011981673740851
  53    0.0020900587363438
  54    -0.019401380627999
  55    -0.036530708904501
  56    -0.0025868365767769
  57    -0.012130777722142
  58    -0.0022340582363331
 Sym= A
 Ene=               4
 Spin= Alpha
 Occup=    1.00000
   1    -0.0050891110086298
   2      0.18311957829157
   3      0.10620935325899
   4     -0.12360434158315
   5      0.17458430571197
   6      0.30013496619274
   7    -0.060650037226655
   8     0.081749039857499
   9      0.14123523845995
  10     0.011156092375636
  11    -0.012005267595322
  12     0.015826870851672
  13    -0.002129744137913
  14    -0.0070152205100241
  15    -0.0024460811268419
  16    -0.020092921746643
  17    -0.013030448503024
  18     0.024274745271788
  19    0.00095177210125552
  20    -5.1277325202684e-05
  21     0.014282967375198
  22    -0.0018895839373431
  23    -0.010642292419283
  24    -0.0030268082673275
  25    -0.014311745175212
  26    0.0024879147838187
  27    0.0036173258405553
  28    -0.0085255158532368
  29    -0.021287709951561
  30    -0.024473037702571
  31    0.0014606532732697
  32    -0.00024178019024323
  33    -0.00085128454662276
  34     0.020963041068831
  35     0.037239738606561
  36    0.00058596791120363
  37    -0.00094038027227352
  38    -0.00059323031832135
  39    -0.00044597344565251
  40    0.0020467432538056
  41    0.0018249337079678
  42    -0.00040403705416507
  43    -0.0003250973391156
  44    -0.019870964067923
  45    -0.037223970766711
  46    -0.0025653649784328
  47     0.007800945354681
  48    0.0093314042742191
  49    -0.019401497759607
  50    -0.036530976842746
  51    -0.0025868451113348
  52    0.0041306023132644
  53     0.011622605788449
  54      0.43305508518192
  55      0.16012949678221
  56     0.012755412890154
  57    -0.014944125710718
  58    -0.026189151478329
 Sym= A
 Ene=               5
 Spin= Alpha
 Occup=    1.00000
   1    -0.0024455727153096
   2    -0.020096389983897
   3    -0.013032867101385
   4     -0.02427840142746
   5    0.0007969115606609
   6    0.00051632171585899
   7    -0.014284646576396
   8    -0.006958341232556
   9    0.0082698575936648
  10    -0.0045407709446256
  11    -0.0081314660217259
  12    -0.00054039829504079
  13     0.002742854406759
  14     0.014539219441506
  15    -0.0050885727670721
  16      0.18311751617118
  17      0.10620775902892
  18      0.12360868494146
  19      0.30126116999802
  20     -0.17263334285127
  21      0.06065203729725
  22      0.14141402078442
  23    -0.081439114531975
  24    -0.0044363155095518
  25    -0.0068891066059329
  26    -0.015358287839569
  27    -0.011132506110196
  28     0.012078047235176
  29    -0.019401695532214
  30    -0.036530514988026
  31    0.0025869738938872
  32    0.0093884894154392
  33    -0.0080001132629377
  34    -0.019869833818728
  35    -0.037223473355222
  36    0.0025654432902235
  37     0.011421576450629
  38    -0.0041807432357567
  39      0.43305530047322
  40       0.1601298648607
  41    -0.012755311233749
  42    -0.026036575684636
  43     0.015208374319798
  44     0.020963939997997
  45     0.037240593959805
  46    -0.00058604703351198
  47    -0.001111041907097
  48    4.3440444355675e-05
  49    -0.021286020376416
  50    -0.024471842254561
  51    -0.001460708641304
  52    -0.00063512410287691
  53    0.00061629277187824
  54    -0.00045014384279474
  55    0.0020455245545255
  56    -0.0018251873317608
  57    -0.00051229438965343
  58    7.9773991513331e-05
 Sym= A
 Ene=               6
 Spin= Alpha
 Occup=    1.00000
   1    -0.005088922432598
   2      0.18311860837781
   3      0.10620854994597
   4     -0.12360713366343
   5      0.17263158353617
   6     -0.30126197456016
   7    -0.060651320639507
   8     0.081438354679948
   9     -0.14141439840999
  10     0.011859050443765
  11     0.012078043801851
  12    -0.015358317917912
  13    -0.0017242126362024
  14    -0.006889131270949
  15    -0.0024458535514125
  16    -0.020095531307984
  17    -0.013032214177311
  18     0.024276735860065
  19    -0.00051831667799391
  20    -0.00079762297491458
  21     0.014283876682037
  22    -0.0082707511161601
  23    0.0069580495162813
  24    -0.00010510538201964
  25     0.014539228106392
  26    -0.00054030788830523
  27    0.0053039627075354
  28    -0.0081314609224923
  29     0.020963263339534
  30     0.037240222654626
  31    0.00058602767510942
  32    -4.3499792707297e-05
  33    0.0011110694970578
  34    -0.00044858553967468
  35    0.0020459469945061
  36    0.0018250869599238
  37    -7.9692555068769e-05
  38    0.00051235344113039
  39    -0.021287247243186
  40    -0.024472400516638
  41    0.0014607033664743
  42    -0.00061626727700041
  43    0.00063505264851046
  44    -0.019400272034777
  45    -0.036530190145785
  46    -0.0025868779610462
  47    0.0080002171929455
  48    -0.0093885122945851
  49      0.43305520347245
  50      0.16012967441653
  51      0.01275534940239
  52    -0.015208430967185
  53      0.02603655938113
  54    -0.019871051534836
  55    -0.037224032752127
  56    -0.002565439151344
  57    0.0041807388317316
  58    -0.011421515679584
 Sym= A
 Ene=               7
 Spin= Alpha
 Occup=    1.00000
   1    -0.0024458205217654
   2    -0.020094807584579
   3    -0.013031833925857
   4    -0.024277790547051
   5    5.0747250256278e-05
   6    -0.00094989143419688
   7    -0.014284381890323
   8     0.010642047312033
   9    0.0018904025937309
  10    -0.0016191763789145
  11    -0.0085254999674475
  12    0.0024880048011211
  13    0.0044297238168368
  14    -0.014311764173463
  15    -0.0050890197883278
  16       0.1831181950878
  17      0.10620826515306
  18      0.12360763289168
  19     -0.30013577298945
  20     -0.17458239214411
  21     0.060651566308768
  22     -0.14123558210538
  23    -0.081748190743609
  24    -0.003733413990479
  25    -0.0070152345565552
  26     0.015826916472014
  27    -0.010726537851054
  28    -0.012005275994839
  29    -0.019869048460837
  30    -0.037223088273985
  31    0.0025653878144407
  32    -0.009331430067364
  33    -0.0078010443440333
  34      0.43305528210135
  35      0.16012982314457
  36    -0.012755333171284
  37     0.026189118743197
  38     0.014944178342115
  39    -0.019402451835544
  40    -0.036531114200617
  41    0.0025869694034067
  42    -0.011622532404071
  43    -0.0041306025744158
  44    -0.021287247521623
  45     -0.02447263943081
  46    -0.0014607268203519
  47    0.00085128339131486
  48    0.00024183667511073
  49    -0.00044741252280721
  50     0.002046539757925
  51    -0.0018250711459652
  52    0.00032516855385197
  53    0.00040394590688905
  54     0.020964198816376
  55     0.037240438596022
  56    -0.00058601227541305
  57    0.00059317761518476
  58    0.00094037059216657
 Sym= A
 Ene=               8
 Spin= Alpha
 Occup=    1.00000
   1    -0.0055108867763252
   2      0.19675274536455
   3      0.14780320504247
   4      0.36734369088191
   5    1.3275999340969e-06
   6    -2.2159691951033e-06
   7      0.17046454171501
   8    6.1396841187118e-07
   9    -9.7268934287174e-07
  10     -0.01600803583018
  11    -3.3290139988609e-09
  12    -1.0719024326982e-07
  13     0.027726844195865
  14    -2.4068556900749e-09
  15    -0.0055118008887755
  16      0.19675637982428
  17      0.14780535034033
  18     -0.36734191252108
  19    1.0254532782743e-06
  20    -1.9381014281517e-06
  21     -0.17046371307376
  22    4.1940775369125e-07
  23    -8.584717791878e-07
  24    -0.016008048182168
  25    2.9684665167786e-08
  26    -5.4114656941438e-08
  27     0.027726587494651
  28    -2.0927236884533e-08
  29    -0.022274945509446
  30     -0.03742358830078
  31    -0.0094665558198002
  32    -1.1000338162473e-06
  33    -0.0013844944189294
  34    -0.022273349026666
  35    -0.037423083859657
  36    -0.0094666061486139
  37    0.0011996875834557
  38    0.00069125813622322
  39    -0.022271966021192
  40    -0.037422614079024
  41    -0.0094666607334647
  42    -0.0011986110821184
  43    0.00069328666097638
  44    -0.022276855245016
  45    -0.037423900544438
  46    0.0094665042179398
  47    0.0013842491509941
  48     1.06260579887e-06
  49    -0.022273686314222
  50    -0.037422770826507
  51    0.0094666115781977
  52    -0.00069319221460197
  53    0.0011983840405708
  54    -0.022276783288236
  55    -0.037423893301506
  56    0.0094665010396382
  57    -0.00069108968258271
  58    -0.001199396681407
 Sym= A
 Ene=               9
 Spin= Alpha
 Occup=    0.00000
   1      -0.1642706932392
   2     -0.21066820415228
   3       3.6233560384682
   4      0.32388829792346
   5    9.3710438986481e-05
   6    -0.00037649559593212
   7       1.7668362555473
   8    0.00046348949582343
   9    -0.00081248725574127
  10    -0.084531388206781
  11    0.00048734497008482
  12    -0.0025322505803569
  13      0.14816810565489
  14    -7.9142567568408e-05
  15      0.27793777042802
  16      0.53274661437735
  17      -2.0973507945029
  18     -0.34726236091779
  19    -0.00021622518886125
  20    7.7472803664831e-05
  21       3.6681778194547
  22    -0.00063099301001641
  23    0.00041276812536351
  24      0.13351363615625
  25    0.00047201694245527
  26    0.0013015784879001
  27     -0.23150245166713
  28    -0.0001856946166341
  29     -0.16852250165719
  30     -0.50013029057894
  31     -0.29884750247541
  32    -0.00048538344040134
  33      0.18421000530965
  34     -0.16879095797331
  35     -0.50005751541238
  36     -0.29852536005718
  37     -0.15944373641648
  38    -0.092303649479211
  39     -0.16754847395702
  40     -0.49968642421801
  41     -0.29890478595988
  42      0.15911909380728
  43    -0.091871180152111
  44     -0.15243674261043
  45      0.12397314301783
  46    0.0091369681191966
  47    0.0024948734127677
  48    -0.0023014116141181
  49     -0.15428003730937
  50      0.12356123206682
  51    0.0085645420094899
  52    0.00054362432143373
  53    0.0023488130319131
  54     -0.15195503310988
  55        0.123973589821
  56    0.0092829377277039
  57    -0.0025310056439403
  58    -0.0017111968499291
 Sym= A
 Ene=              10
 Spin= Alpha
 Occup=    0.00000
   1     0.059752818385156
   2     0.068700097315889
   3      -1.1757293277471
   4     -0.12829891341796
   5    0.0030524856482051
   6     0.027511315054376
   7     -0.44002172739653
   8     -0.19037771930184
   9     -0.76143171197309
  10     0.012938235936915
  11      -0.1157512496132
  12     0.034628162947601
  13    -0.033376065203867
  14    -0.0067321571478914
  15     -0.40803511350028
  16     -0.72018769078904
  17       3.4036317994203
  18      0.16503590695693
  19    -0.0064530636121489
  20     0.078227238772473
  21     -0.10018960875295
  22       0.2352210087528
  23       2.6583589399914
  24      0.34135270104283
  25      0.30011885622258
  26    -0.025758263719788
  27      0.12431127713649
  28     0.014748216329918
  29      -1.6618360179228
  30      -1.8485616493764
  31      0.25545230177592
  32    -0.026220238599117
  33      0.46622660096245
  34    0.0085101118192161
  35      0.39750688691929
  36    -0.046078023589806
  37      0.11917015829883
  38      -0.2101877452055
  39     -0.11220549642885
  40      0.17634069459728
  41    -0.027869192728221
  42     -0.10344428522778
  43     -0.24840761552377
  44     0.041259494244458
  45     -0.10168172460888
  46    -0.013770135547722
  47     0.002019272187565
  48     0.062629256467093
  49     0.075056396573784
  50    -0.048098972173559
  51     0.079001436108043
  52     0.012015208741414
  53      0.05743271180067
  54     0.086417143810409
  55      0.29620606520676
  56    -0.058079149953381
  57    -0.014071330387545
  58     0.036310950382178
 Sym= A
 Ene=              11
 Spin= Alpha
 Occup=    0.00000
   1    -0.059731467006979
   2     -0.06865943260857
   3       1.1763195542417
   4      0.12851087262155
   5     0.025382093815083
   6     0.010870060126683
   7      0.44025908120155
   8     -0.75433957893722
   9     -0.21618627491264
  10    0.0059633360013433
  11    -0.051844711148065
  12     0.020169209818202
  13     0.044180397785309
  14     -0.10352981196938
  15      0.40808893018451
  16      0.72026997849064
  17      -3.4038702767504
  18     -0.16513925014016
  19     0.064217717759891
  20     0.044295398390363
  21      0.10045981786779
  22       2.4190270647113
  23       1.1247809750729
  24       0.1015537980797
  25      0.13727110837286
  26     -0.31992087301511
  27      0.13019005715592
  28      0.26724068857895
  29      0.11359005175868
  30     -0.17619000268745
  31     0.027316781880057
  32     -0.26745839388229
  33    -0.035158075779729
  34       1.6598876516283
  35       1.8483103486508
  36     -0.25444640157963
  37      0.39025394792122
  38      0.25513237998013
  39    -0.0083405065783728
  40     -0.39741257407189
  41     0.046186258976146
  42      -0.1230706759028
  43     -0.20918668607032
  44    -0.086444315505488
  45     -0.29614586842146
  46     0.057971715921475
  47     0.024405215057418
  48      0.02989879329748
  49     -0.04207687679472
  50      0.10152829732481
  51      0.01341477793827
  52     0.055184743597707
  53     0.029189243315855
  54    -0.074366015971793
  55     0.048145696771117
  56    -0.078744994806979
  57     0.055764681904409
  58     0.017927381488456
 Sym= A
 Ene=              12
 Spin= Alpha
 Occup=    0.00000
   1     0.059734681655683
   2     0.068685305403562
   3      -1.1759344305709
   4     -0.12846413296675
   5     0.022071161596827
   6    -0.016117446060086
   7     -0.44016958625646
   8     -0.56484728511321
   9       0.5455665020291
  10     0.044725427455449
  11     0.063307217776962
  12    -0.011329568607033
  13    -0.015201929282498
  14    -0.096591027009409
  15     -0.40801433852813
  16     -0.72011498673141
  17       3.4036139006343
  18      0.16505328363561
  19     0.070983906397319
  20    -0.032928023692732
  21     -0.10017851611177
  22         2.18451435414
  23      -1.5317122984106
  24     -0.13910941874885
  25      -0.1626851455158
  26     -0.29592118500123
  27     -0.15190630538198
  28      0.25267112094431
  29       0.0065093080114
  30      0.39719832627648
  31    -0.045336471438214
  32     -0.24184505858333
  33    0.0026907982309772
  34     -0.11130554208012
  35      0.17646345608465
  36    -0.028341196110316
  37     -0.16368955437225
  38      0.21493702592897
  39      -1.6603662780634
  40      -1.8484302111723
  41      0.25457965746748
  42      0.41688082768543
  43      -0.2094164827889
  44     0.074190014958094
  45    -0.048329723697791
  46     0.078732875454659
  47     0.043378882815371
  48    -0.038860664706894
  49      0.08738992399467
  50      0.29632787403671
  51    -0.057721575428923
  52     0.038146349702047
  53    -0.0056620080835871
  54     0.041082477974272
  55     -0.10155720048767
  56    -0.013829764130225
  57     0.052932876927477
  58    -0.032746136704163
 Sym= A
 Ene=              13
 Spin= Alpha
 Occup=    0.00000
   1     -0.27794940672214
   2     -0.53276900523346
   3        2.097417701914
   4     -0.34726909369047
   5    0.00016866482618067
   6    0.00013447627367746
   7       3.6681641947364
   8    0.00039258072086865
   9    0.00091966383082005
  10      -0.1326062785881
  11    -0.00050917557989781
  12    0.0005471508343613
  13      0.23202615023412
  14    1.8382168910037e-05
  15      0.16426867882473
  16      0.21066307279252
  17      -3.6233652479573
  18      0.32389579789214
  19    0.00010460286719845
  20    -0.00040078905965477
  21       1.7668170075412
  22    1.9329469675088e-05
  23    -0.00097294511098215
  24     0.083013085191111
  25    -0.00046520971213995
  26    -0.00051877844600303
  27     -0.14904246336727
  28    0.00015412515497339
  29      0.15428907138747
  30     -0.12355552591453
  31    0.0085817177073308
  32    -0.0016443252461903
  33    0.0017377529488386
  34       0.1524383928161
  35      -0.1239582136679
  36    0.0091207163296746
  37    -0.0010308352590316
  38    -0.0032489609343313
  39      0.15195096502877
  40     -0.12397818522398
  41     0.009288793061157
  42    0.0030477262687622
  43    -0.00021134859376316
  44      0.16880665708871
  45      0.50008656875307
  46     -0.29853270035033
  47      0.18427415330908
  48    -0.00025080119638782
  49      0.16855782009656
  50      0.50019732219659
  51     -0.29883315561019
  52    -0.091698409039728
  53      0.15972583083578
  54      0.16745974317947
  55      0.49954448686773
  56     -0.29891512855353
  57    -0.091856750931671
  58      -0.1591056656751
 Sym= A
 Ene=              14
 Spin= Alpha
 Occup=    0.00000
   1     -0.40797974658098
   2     -0.72005347340973
   3       3.4033262792767
   4     -0.16501990637763
   5     0.045045277117789
   6     0.063966412925916
   7     0.099906378636598
   8        1.125518922672
   9       2.4190579729168
  10      0.16782074772026
  11     -0.26723668225031
  12      0.31809712463568
  13     0.025289125481391
  14     -0.13749186286142
  15     0.059716905835376
  16     0.068660273504459
  17      -1.1756033877253
  18      0.12843920273958
  19     0.011044490661798
  20     0.024995421212461
  21      0.44003966362912
  22     -0.21616606382621
  23     -0.75505783235566
  24     0.039740225584605
  25      0.10311942691462
  26    -0.021301348478976
  27    -0.018070826784466
  28     0.051963395556945
  29     0.087406169287712
  30      0.29638085098017
  31     0.057713412131295
  32     0.030184941612419
  33     0.023972502065372
  34     0.074176622127649
  35    -0.048278390665572
  36    -0.078751101968423
  37     0.018106693674971
  38     0.055353956084431
  39     0.041024826238693
  40     -0.10165596127167
  41      0.01382149423906
  42     0.029472235135724
  43     0.054834821365909
  44     -0.11144447659242
  45      0.17621637344009
  46     0.028266548115115
  47    -0.034281616661518
  48     -0.26796109486627
  49    0.0066750001134752
  50      0.39741243080489
  51     0.045467849350662
  52     -0.20812193485838
  53     -0.12329766242411
  54      -1.6603528725858
  55      -1.8484458907767
  56     -0.25454223636277
  57      0.25636730530518
  58      0.38977584253028
 Sym= A
 Ene=              15
 Spin= Alpha
 Occup=    0.00000
   1      0.40811374244704
   2      0.72031907694656
   3      -3.4040236664539
   4      0.16514248503422
   5     0.077756228125533
   6    -0.0062498699608929
   7     -0.10051865976338
   8       2.6572892198155
   9      0.23592125914528
  10      0.27524179412059
  11    -0.014823610806075
  12     0.027481492610991
  13      0.23045406905458
  14     -0.30004647329839
  15    -0.059743173950236
  16     -0.06867784770225
  17       1.1764505784473
  18     -0.12851699951542
  19     0.027410929537381
  20    0.0033007417143433
  21      -0.4403194293467
  22     -0.76137726232051
  23     -0.19013503258442
  24    -0.020968426020163
  25    0.0068933949635814
  26    -0.033666443430167
  27     0.028638419865499
  28      0.11558381139812
  29    -0.042075203673829
  30       0.1015876574088
  31    -0.013414150105557