[Molden Format]
made by pyscf v[2.0.1]
[Atoms] (AU)
C   1   6     0.00000000000000     0.00000000000000     0.00000000000000
C   2   6     2.88195139270757     0.00000000000000     0.00000000000000
H   3   1     3.63065534584939     0.00000000000000     1.92469232395612
H   4   1     3.63065534584939    -1.66683244701491    -0.96234616197806
H   5   1     3.63065534584939     1.66683244701491    -0.96234616197806
H   6   1    -0.74870395314182     1.47439985948033    -1.23716837829778
H   7   1    -0.74870395314182     0.33421931462451     1.89545192279507
H   8   1    -0.74870395314182    -1.80861917410484    -0.65828354449729
[GTO]
1 0
 s    8 1.00
                  6665  0.00069158396281299
                  1000  0.0053257961529341
                   228   0.027060721042034
                 64.71    0.10165684614077
                 21.06     0.2745748236174
                 7.495    0.44829431892377
                 2.797    0.28490261071525
                0.5215   0.015194859206082
 s    8 1.00
                  6665  -0.00029326965268655
                  1000  -0.0023180354739745
                   228  -0.011499786038565
                 64.71  -0.046826727009787
                 21.06   -0.12846616875047
                 7.495   -0.30126627246289
                 2.797   -0.25563070233011
                0.5215      1.093793361012
 s    1 1.00
                0.1596                   1
 p    3 1.00
                 9.439   0.056979251590039
                 2.002    0.31320721150073
                0.5456    0.76037674173753
 p    1 1.00
                0.1517                   1
 d    1 1.00
                  0.55                   1

2 0
 s    8 1.00
                  6665  0.00069158396281299
                  1000  0.0053257961529341
                   228   0.027060721042034
                 64.71    0.10165684614077
                 21.06     0.2745748236174
                 7.495    0.44829431892377
                 2.797    0.28490261071525
                0.5215   0.015194859206082
 s    8 1.00
                  6665  -0.00029326965268655
                  1000  -0.0023180354739745
                   228  -0.011499786038565
                 64.71  -0.046826727009787
                 21.06   -0.12846616875047
                 7.495   -0.30126627246289
                 2.797   -0.25563070233011
                0.5215      1.093793361012
 s    1 1.00
                0.1596                   1
 p    3 1.00
                 9.439   0.056979251590039
                 2.002    0.31320721150073
                0.5456    0.76037674173753
 p    1 1.00
                0.1517                   1
 d    1 1.00
                  0.55                   1

3 0
 s    3 1.00
                 13.01   0.033498726389998
                 1.962    0.23480080117413
                0.4446     0.8136829578829
 s    1 1.00
                 0.122                   1
 p    1 1.00
                 0.727                   1

4 0
 s    3 1.00
                 13.01   0.033498726389998
                 1.962    0.23480080117413
                0.4446     0.8136829578829
 s    1 1.00
                 0.122                   1
 p    1 1.00
                 0.727                   1

5 0
 s    3 1.00
                 13.01   0.033498726389998
                 1.962    0.23480080117413
                0.4446     0.8136829578829
 s    1 1.00
                 0.122                   1
 p    1 1.00
                 0.727                   1

6 0
 s    3 1.00
                 13.01   0.033498726389998
                 1.962    0.23480080117413
                0.4446     0.8136829578829
 s    1 1.00
                 0.122                   1
 p    1 1.00
                 0.727                   1

7 0
 s    3 1.00
                 13.01   0.033498726389998
                 1.962    0.23480080117413
                0.4446     0.8136829578829
 s    1 1.00
                 0.122                   1
 p    1 1.00
                 0.727                   1

8 0
 s    3 1.00
                 13.01   0.033498726389998
                 1.962    0.23480080117413
                0.4446     0.8136829578829
 s    1 1.00
                 0.122                   1
 p    1 1.00
                 0.727                   1

[5d]
[7f]
[9g]

[MO]
 Sym= A
 Ene=               0
 Spin= Alpha
 Occup=    1.00000
   1    -2.7331352542739e-05
   2    -0.0004676815602687
   3    0.0019850681096594
   4    -0.0011466481970428
   5    -4.0451032746923e-08
   6    1.1228671426995e-07
   7    0.00058033871956781
   8    -1.9775426669091e-08
   9    6.3056192598668e-08
  10    0.00025947544000538
  11    -1.6035123856789e-08
  12    5.3752547195412e-09
  13    -0.00044941733341961
  14    3.7787346670155e-09
  15       1.0026329767218
  16    -0.00039389037225883
  17    -0.012766626917231
  18    -0.00097343913702427
  19    4.4699259483479e-08
  20    -2.4487624478928e-07
  21    0.00016729253988287
  22    2.3208969746695e-08
  23    -1.2028703985949e-07
  24    8.9220158947827e-05
  25    -1.5004346172655e-08
  26    -1.8430185505355e-09
  27    -0.00015455927751461
  28    3.6746107602177e-09
  29     -0.00291011512283
  30    0.00074315136513791
  31    0.00021520589326171
  32    -2.5045590083607e-07
  33    0.00079139511792822
  34    -0.0029098200706083
  35    0.00074328862240735
  36    0.00021519614119855
  37    -0.00068522676792152
  38    -0.00039591525216871
  39    -0.0029097486231515
  40    0.00074332360286243
  41    0.00021519406273047
  42    0.00068547657229627
  43    -0.00039547612111803
  44    1.4258881523015e-05
  45    0.00016575185286954
  46    2.5291297422881e-05
  47    -9.880736925203e-06
  48    4.5808397029496e-06
  49    1.4467897893675e-05
  50    0.00016587053044236
  51    2.5297394766693e-05
  52    9.7191313635667e-07
  53    -1.0855004062339e-05
  54    1.4359162527035e-05
  55    0.00016580670692711
  56    2.5294638495024e-05
  57    8.9091526548187e-06
  58    6.2733886075793e-06
 Sym= A
 Ene=               1
 Spin= Alpha
 Occup=    1.00000
   1       1.0026329757715
   2    -0.00039388917441211
   3    -0.012766619352233
   4    0.00097353957046345
   5    6.9935728796059e-08
   6    2.2166766131027e-07
   7    -0.00016724643352767
   8    3.5424330669123e-08
   9    1.0759994842384e-07
  10    8.923610990563e-05
  11    -1.2108591408206e-08
  12    2.9398189282463e-09
  13    -0.00015453823439652
  14    -5.2246338055447e-09
  15    -2.7334453404109e-05
  16    -0.00046757588377043
  17    0.0019851375488656
  18    0.0011465988166483
  19    -5.1904217210153e-08
  20    -7.0524203170518e-08
  21    -0.00058036144599291
  22    -2.629085132267e-08
  23    -4.2470627798983e-08
  24    0.0002594671426338
  25    -1.3278717186127e-08
  26    3.3476526051654e-09
  27    -0.00044941753435984
  28    -5.4248255510751e-09
  29    1.4321488293951e-05
  30    0.00016576196034978
  31    -2.5295616789499e-05
  32    -2.8457606961483e-06
  33    -1.0520114054331e-05
  34    1.4479676537791e-05
  35    0.00016585656517349
  36    -2.5300088393099e-05
  37    1.0537987680888e-05
  38    2.7987131632019e-06
  39    1.4392640809937e-05
  40    0.00016580938709884
  41    -2.5297143358676e-05
  42    -7.6918094293907e-06
  43    7.7215708992312e-06
  44    -0.0029100041528637
  45    0.00074320729253578
  46    -0.00021520012231443
  47    0.00060608348709248
  48    -0.00050888439355571
  49    -0.002909720617386
  50    0.00074333622555713
  51    -0.00021519066777826
  52    0.00013767036944321
  53    0.00077931130221211
  54    -0.0029100539687778
  55    0.00074318165084594
  56    -0.0002152015245975
  57    -0.00074375486990088
  58    -0.0002704304473435
 Sym= A
 Ene=               2
 Spin= Alpha
 Occup=    1.00000
   1    -0.0051540719912555
   2      0.18289473339612
   3      0.10673937315922
   4     -0.12363811795816
   5     -0.32671827021019
   6     -0.11830544005756
   7    -0.060307609593495
   8     -0.15477684713132
   9     -0.05624359812395
  10    -0.0080841620129409
  11    0.0046652361864886
  12     0.011165327578946
  13    -0.013348172769565
  14     0.012927384963755
  15    -0.0024159886444404
  16    -0.020186256611256
  17     -0.01350775555867
  18     0.024406559100287
  19    0.00018421797003369
  20    0.00051624836331319
  21     0.014861699390697
  22     0.012371522888432
  23     0.006518083547693
  24    -0.0029227792192004
  25    0.0055313167479129
  26    -0.00070971782327325
  27    0.0037122882141328
  28      0.01553082793132
  29     0.008088001710213
  30     0.014703664549561
  31    0.0014602561557403
  32    0.00029315953115007
  33    0.00027212906183389
  34    -0.024102247009562
  35    -0.027634043896254
  36    0.0011685215221376
  37    0.0007488322158156
  38     0.000351575939763
  39     0.015575834549957
  40     0.027254371440651
  41    0.0010010322556417
  42    0.00069327511019053
  43    -0.00025470835783512
  44    -0.019777186851714
  45    -0.036774961591436
  46    -0.0025690531928014
  47    -0.011986723398811
  48    -0.0021681004785903
  49    -0.019529779829458
  50    -0.036420003478704
  51    -0.0025792702358395
  52    -0.010622894513952
  53    -0.0061386778313921
  54      0.43302248693424
  55      0.15991436686978
  56     0.012665601180108
  57      0.02839367189798
  58     0.010416415145235
 Sym= A
 Ene=               3
 Spin= Alpha
 Occup=    1.00000
   1    -0.0024159429046485
   2    -0.020186900667472
   3    -0.013508138338401
   4    -0.024406241035807
   5    -0.00042313602617005
   6    -0.00035037333506726
   7    -0.014861546150082
   8    -0.0018939931951548
   9    -0.013855090121592
  10    -0.0022854503429386
  11     0.016486042750151
  12    -0.00097756532535066
  13    0.0040802787742032
  14    -0.00011429121649347
  15    -0.0051539372031179
  16      0.18289497487802
  17      0.10673951322903
  18      0.12363823237742
  19    -0.00057798371240797
  20      0.34747739043469
  21     0.060307654594162
  22    -8.7202337925155e-05
  23      0.16467904427347
  24     0.019046604526404
  25     0.013743397392494
  26    -0.00023687069825451
  27    0.0023157497987445
  28    -3.7666996034642e-05
  29      0.43302251470516
  30      0.15991437507932
  31    -0.012665600055321
  32    -7.7160316983515e-05
  33    -0.030243954170412
  34    -0.019526242857224
  35    -0.036418591027439
  36    0.0025791481692714
  37    0.0021353611480531
  38     0.012081958724436
  39    -0.019780299050153
  40    -0.036776314213766
  41    0.0025691582554624
  42    -0.0020622625183787
  43     0.012005230488073
  44     0.015575345848539
  45     0.027254462732146
  46    -0.0010010554700129
  47    0.00047649523390324
  48    -0.00056442307846519
  49    -0.024103348129934
  50     -0.02763433909268
  51    -0.0011685542324703
  52    -7.4266543586949e-05
  53    -0.00082382450287806
  54    0.0080883262597958
  55      0.01470362063973
  56    -0.0014602328859035
  57    -0.00015543500115834
  58    -0.00036855766743744
 Sym= A
 Ene=               4
 Spin= Alpha
 Occup=    1.00000
   1    -0.0051541437968141
   2      0.18289441453298
   3      0.10673895791567
   4     -0.12364135323877
   5      0.26581325824138
   6     -0.22379376868814
   7    -0.060309104371554
   8      0.12609609738863
   9     -0.10591898796176
  10    0.0013065310537149
  11    0.0088628705395609
  12    -0.017425659803094
  13    -0.0079268102928466
  14     -0.01050379440273
  15    -0.002415729340896
  16    -0.020188998595957
  17    -0.013509609970675
  18     0.024408609728109
  19    -0.0005380053573945
  20    -9.7784199504501e-05
  21     0.014862652134929
  22    -0.011829970040646
  23     0.007455404506091
  24    -0.0015134529196262
  25     0.010684472473384
  26    -0.00022982062266896
  27    0.0045257745640352
  28    -0.012555561838984
  29     0.015575858848105
  30     0.027254799770071
  31    0.0010011029055122
  32    -0.00012601541981089
  33    0.00072782287520892
  34    0.0080859898397718
  35     0.014703121750761
  36    0.0014603904229413
  37    -0.00038239697802343
  38    0.00011773788617638
  39    -0.024102303577826
  40    -0.027633580464567
  41    0.0011685953408618
  42    -0.00067879540341901
  43    0.00047271183009013
  44      0.43302251566178
  45      0.15991437787969
  46     0.012665525785182
  47     -0.02321776310106
  48     0.019381429804114
  49    -0.019776723959608
  50    -0.036774810079683
  51    -0.0025691144822906
  52    0.0078709398919959
  53    -0.0092968083264575
  54    -0.019527609970335
  55    -0.036418953738389
  56    -0.0025792790664621
  57     0.010627816328204
  58    -0.0061303040644333
 Sym= A
 Ene=               5
 Spin= Alpha
 Occup=    1.00000
   1    -0.0024162313270982
   2    -0.020187253215565
   3    -0.013508433670334
   4    -0.024407438297654
   5    0.0005169662666265
   6    -0.0001925390889621
   7    -0.014862116540482
   8     0.012946787369055
   9    0.0052866450770848
  10    -0.0016313268680977
  11    -0.0083418920232658
  12    0.00054138492076191
  13    0.0044578446330953
  14     -0.01422026950236
  15    -0.0051545741242861
  16      0.18289497242253
  17       0.1067394302647
  18      0.12363960144445
  19     -0.30063536896165
  20     -0.17423802559079
  21     0.060308303078406
  22     -0.14257277156235
  23     -0.08241442356458
  24    -0.0037071861247802
  25    -0.0069042099301641
  26     0.015406141725759
  27    -0.010821274274271
  28    -0.011883395203317
  29    -0.019778699914432
  30    -0.036775534188296
  31    0.0025691400955491
  32    -0.0093657081417505
  33    -0.0077886775794548
  34      0.43302259123167
  35       0.1599144640837
  36    -0.012665564305888
  37     0.026230610143242
  38     0.015055194810915
  39    -0.019526567901019
  40     -0.03641888984583
  41    0.0025791876951176
  42    -0.011530963454212
  43    -0.0041916660428325
  44    0.0080906319189042
  45     0.014704733689851
  46    -0.0014601896677379
  47    0.00039681653938254
  48    4.9747073456639e-05
  49     0.015574691778687
  50     0.027254154320728
  51    -0.0010011074343688
  52    0.00025062732049269
  53    0.00069487767301837
  54    -0.024104331642217
  55    -0.027634697737872
  56    -0.001168622066943
  57    0.00075056376999817
  58    0.00034752395363898
 Sym= A
 Ene=               6
 Spin= Alpha
 Occup=    1.00000
   1    -0.0051547976784118
   2      0.18289523133689
   3      0.10673951422555
   4      -0.1236408550259
   5     0.060903069361704
   6      0.34209775428478
   7    -0.060308898752623
   8     0.028679787459596
   9      0.16216190908094
  10     0.018054457987694
  11    -0.013528058465705
  12    0.0062603793346277
  13    0.0017427112128583
  14    -0.002423461365614
  15    -0.0024161730366275
  16    -0.020187584372054
  17    -0.013508703140288
  18     0.024408402963544
  19    0.00035488953705002
  20    -0.00041866099036672
  21     0.014862580367083
  22    -0.00054096132911057
  23    -0.013973514988692
  24    -0.0025781310333131
  25    -0.016215728515509
  26    0.00093947650139049
  27    0.0039111424153264
  28    -0.0029751300079607
  29    -0.024103067562972
  30    -0.027634113893372
  31    0.0011686098741511
  32    -6.9944028681478e-05
  33    -0.00082422482551557
  34     0.015576214055479
  35     0.027254664121394
  36    0.0010010747626461
  37    -0.00056720614445723
  38    -0.0004730597903657
  39    0.0080883192615391
  40     0.014704002272109
  41     0.001460301324548
  42    8.9082441701108e-05
  43    -0.00038997501831108
  44    -0.019528324577769
  45    -0.036419505417419
  46    -0.0025792840536002
  47    -4.9323166309636e-06
  48     0.012269089179338
  49      0.43302251311042
  50      0.15991435102084
  51     0.012665536060835
  52    -0.0051759749934475
  53    -0.029797898912197
  54    -0.019775243731107
  55    -0.036774233440765
  56    -0.0025690496972168
  57    0.0041158888368001
  58     0.011464881603753
 Sym= A
 Ene=               7
 Spin= Alpha
 Occup=    1.00000
   1    -0.0024160365653014
   2    -0.020188423575963
   3     -0.01350919587551
   4    -0.024407864896143
   5    -9.2053678189307e-05
   6    0.00054185843081492
   7    -0.014862318435002
   8    -0.011051912126922
   9    0.0085678721658265
  10    -0.0030976534449447
  11    -0.0081440271371496
  12    0.00043607082930939
  13    0.0036112353400409
  14     0.014334432105203
  15    -0.005154721455087
  16      0.18289536745804
  17      0.10673959968935
  18      0.12364079363334
  19      0.30121212875984
  20     -0.17323763217899
  21     0.060308855046521
  22      0.14265931958794
  23    -0.082263766289507
  24    -0.0040624708853425
  25    -0.006839068642075
  26    -0.015169210747433
  27    -0.011026531939176
  28     0.011920929769699
  29    -0.019524781416987
  30    -0.036418050601427
  31    0.0025791578238293
  32    0.0093955678290291
  33    -0.0078903804534743
  34    -0.019778661990987
  35    -0.036775683241845
  36    0.0025691621060072
  37      0.01142806469233
  38    -0.004216550985756
  39      0.43302250452437
  40      0.15991431039032
  41      -0.0126655397043
  42    -0.026153496072486
  43     0.015188820999767
  44    -0.024103730381005
  45      -0.0276341958396
  46    -0.001168622812459
  47    -0.00067627251887086
  48    0.00047619247072271
  49    0.0080882580499817
  50     0.014703809171268
  51    -0.0014602862439294
  52    -0.00024146294758553
  53    0.00031892541689166
  54     0.015575161001278
  55     0.027254555943897
  56    -0.0010011130100428
  57    -0.00072708999865713
  58    -0.00013045070529474
 Sym= A
 Ene=               8
 Spin= Alpha
 Occup=    1.00000
   1    0.0054904414956934
   2     -0.19704364468348
   3     -0.14775451189901
   4     -0.36708596962535
   5    -2.2616234049773e-06
   6    -1.9942458777901e-08
   7     -0.17038778453717
   8    -1.0528981245582e-06
   9    -6.4549306235688e-08
  10     0.016069994799238
  11    6.1535858287077e-08
  12    9.461513205232e-08
  13    -0.027834162821297
  14    5.8624549428925e-08
  15    0.0054902027388767
  16     -0.19704274974963
  17     -0.14775397865085
  18      0.36708640740478
  19    -6.3994895524665e-07
  20    1.2902810741927e-06
  21       0.1703879846421
  22    -2.1364235382047e-07
  23    6.2371285027178e-07
  24     0.016070123807505
  25    5.1178453807585e-08
  26    2.8746638330442e-08
  27    -0.027834150478248
  28    8.1808923513651e-08
  29     0.022138860344935
  30     0.037328149102177
  31     0.009491284277731
  32    2.8427688278893e-07
  33    0.0014192115489678
  34     0.022137525461932
  35     0.037327455212733
  36    0.0094913220460372
  37    -0.0012292938264415
  38    -0.00070933311745102
  39     0.022136836016196
  40     0.037327409906936
  41    0.0094913543352753
  42    0.0012290323203637
  43    -0.00070990276678968
  44     0.022135760901553
  45     0.037327045027361
  46    -0.0094913863882795
  47    0.0010874988973882
  48    -0.00091218405902421
  49     0.022136721578974
  50     0.037327303642818
  51    -0.0094913481443439
  52    0.00024610165158674
  53    0.0013978513846542
  54     0.022139000375873
  55     0.037328346906534
  56    -0.0094912754132479
  57    -0.0013335563424818
  58    -0.00048567297632731
 Sym= A
 Ene=               9
 Spin= Alpha
 Occup=    0.00000
   1     -0.16398632907692
   2     -0.21022933431674
   3       3.6236441766534
   4      0.32300285934072
   5    0.00010280176712914
   6    0.00029338375412889
   7       1.7663996010903
   8    0.0001817855671455
   9    0.00080924554677293
  10    -0.083361838859304
  11    -0.00015062370875407
  12    0.00048688252949852
  13      0.14860720096969
  14    -9.4959456015303e-05
  15      0.27529569980969
  16      0.52717485911546
  17       -2.082358905779
  18      -0.3485613096004
  19    -6.1023430217827e-05
  20    -0.00010489996067956
  21       3.6700567148678
  22    -8.8625846453373e-05
  23    -0.00051628680305585
  24      0.13316290536147
  25    0.0001701731617401
  26    0.00043574178876246
  27     -0.23310230451001
  28    -3.2584816123462e-05
  29     -0.16673532620814
  30     -0.50510604568989
  31     -0.29789110185089
  32    -0.00019000303118184
  33      0.18347225339172
  34      -0.1676745011163
  35     -0.50529793698371
  36     -0.29748751561671
  37     -0.15903627817903
  38    -0.092145929670535
  39     -0.16732571943449
  40     -0.50530036488216
  41     -0.29761497159514
  42      0.15893351493551
  43    -0.092027835264896
  44      -0.1523536092044
  45       0.1239817308493
  46    0.0093861356448401
  47    9.7903056599648e-05
  48    0.0016511746546614
  49     -0.15383404188909
  50      0.12360971557641
  51    0.0088554147434224
  52    -0.00089558016439735
  53    -0.00027002580239532
  54     -0.15211710549507
  55      0.12398108879216
  56    0.0094483865144576
  57    0.0012075128373832
  58    -0.00011313012465429
 Sym= A
 Ene=              10
 Spin= Alpha
 Occup=    0.00000
   1     0.062308306202006
   2     0.072770115483415
   3      -1.2033719448532
   4     -0.12816259511017
   5    0.0014858439787598
   6     0.028039595377363
   7     -0.43463996829974
   8    -0.098070076283913
   9     -0.90673924383936
  10     0.032411769717326
  11     -0.11588663618404
  12     0.015607692379085
  13    -0.015878157996066
  14    -0.0025381804634429
  15      -0.4068989287932
  16     -0.71683060944046
  17       3.4068265158586
  18      0.16778872884251
  19    -0.0025947317274846
  20     0.081727397803141
  21    -0.099442004326884
  22      0.10462154599466
  23       2.7201529813217
  24      0.34182602653404
  25      0.29410284989825
  26    -0.011611341907458
  27      0.12262491306589
  28    0.0052011638594076
  29      -1.6743050742262
  30      -1.8895275952018
  31      0.25708139879983
  32    -0.011401695852198
  33      0.46975068572773
  34     -0.02448806109341
  35      0.35613513539117
  36    -0.041354111815547
  37      0.11648002759048
  38       -0.224122152321
  39    -0.075389037824659
  40      0.25649813893725
  41    -0.033767831999502
  42     -0.10960492960404
  43       -0.240646099026
  44     0.062235682420568
  45     -0.10006699279293
  46     0.049057833470528
  47     0.011294429435654
  48      0.06142929813417
  49      0.10794314975126
  50      0.40567796384441
  51    -0.047500587213926
  52    -0.0064631662835215
  53     0.024365546469593
  54     0.047438447443343
  55     -0.13608827530925
  56       0.0157886281963
  57    -0.0061260356899395
  58     0.063219314412852
 Sym= A
 Ene=              11
 Spin= Alpha
 Occup=    0.00000
   1     -0.40685591665764
   2     -0.71674148165088
   3       3.4065403873503
   4     -0.16782917551827
   5     0.016677647563864
   6     0.080101703920683
   7     0.099302362287843
   8      0.37153109958707
   9       2.6966330948086
  10      0.31981841420315
  11     -0.29054194141499
  12      0.13289588468759
  13      0.10990845362266
  14     -0.04618848077782
  15     0.062271737036479
  16     0.072701962898349
  17      -1.2030600383162
  18      0.12814299076167
  19    0.0034394648735076
  20     0.027851759717883
  21      0.43450250228549
  22    -0.061676798420398
  23     -0.90980173630156
  24     0.035985639272515
  25      0.11453574540415
  26    -0.0077872340378619
  27    -0.013804602528388
  28     0.017725399633249
  29      0.10791200132448
  30      0.40559455081556
  31     0.047504007831259
  32     0.010655091701232
  33     0.022865327668719
  34     0.062182351856004
  35      -0.1002970483387
  36     -0.04908226415106
  37    -0.00041394345966384
  38     0.062428816717523
  39     0.047486862383646
  40     -0.13580917134044
  41    -0.015741020101828
  42     0.017035642410922
  43     0.061195692152383
  44    -0.025168666361588
  45      0.35517410936471
  46      0.04124875992786
  47     -0.15359582674909
  48     -0.20069416393633
  49       -1.674384032734
  50      -1.8895276711949
  51     -0.25708573357981
  52     0.092550019772096
  53       0.4607210821787
  54    -0.074657679256091
  55      0.25748504820022
  56      0.03389571855291
  57     0.066264327055149
  58     -0.25585853393609
 Sym= A
 Ene=              12
 Spin= Alpha
 Occup=    0.00000
   1      0.40694469306326
   2      0.71689900008197
   3      -3.4068977958726
   4      0.16793575246134
   5      0.07740848513751
   6     0.025000072385122
   7     -0.09965977318393
   8       2.5203801786384
   9        1.025203341045
  10       0.2070017191751
  11     -0.10493954079523
  12     -0.22098380742642
  13      0.19311422670865
  14     -0.27456206571754
  15    -0.062224960168567
  16    -0.072585818907853
  17        1.203705809832
  18     -0.12834308990623
  19     0.025921070038239
  20     0.011213644786673
  21     -0.43474596112921
  22     -0.81836977533921
  23     -0.40055730445232
  24    -0.0088355703245419
  25      0.04210894318006
  26    -0.025320076793577
  27     0.029362641434525
  28      0.10819389593706
  29    -0.048458079028437
  30       0.1355104491408
  31     0.016022392489526
  32     0.061566094170228
  33     0.016204152204495
  34      -0.1072782601061
  35     -0.40538856179867
  36    -0.047599661488975
  37     0.025232975263479
  38    0.0025548573670831
  39    -0.062060727932866
  40      0.10032299293274
  41     0.049058336284595
  42      0.05395119550164
  43     0.031870825839553
  44     0.074071934912018
  45     -0.25756716577981
  46    -0.034227708168748
  47      -0.1890492980096
  48     -0.18636538247851
  49      0.02735615366065
  50     -0.35480701834866
  51    -0.040560468309223
  52     -0.25117622827997
  53     0.031844982116675
  54       1.6723690687892
  55       1.8892690506733
  56      0.25616807016707
  57      0.44481300758131
  58      0.14922731184965
 Sym= A
 Ene=              13
 Spin= Alpha
 Occup=    0.00000
   1     -0.27531891504062
   2     -0.52722402829888
   3       2.0824236066692
   4     -0.34862975584488
   5    -2.3524910905265e-05
   6    0.00014791482058236
   7       3.6699710417749
   8    -2.3987905607486e-05
   9    0.00049701213767121
  10     -0.13332672806649
  11    0.00010717245803448
  12    0.0008131630043905
  13      0.23300643813379
  14     6.01024846936e-05
  15      0.16395032545889
  16      0.21016005934268
  17      -3.6234572018032
  18      0.32300538307799
  19    5.0115794013986e-05
  20    -0.00032799339293785
  21       1.7662844602631
  22    6.1908009862209e-05
  23    -0.00077782490637076
  24     0.083316642290938
  25    -0.00019464847320495
  26    -0.00024819941755063
  27     -0.14861717723639
  28    7.1960781369424e-05
  29      0.15383750964725
  30     -0.12364221350461
  31      0.00886951656042
  32    -0.00084235979914016
  33    0.00040694462620219
  34      0.15234259674971
  35     -0.12396252298999
  36    0.0093996164189622
  37    -0.00019280102179621
  38    -0.0016432910768023
  39      0.15209857306128
  40     -0.12397890692829
  41    0.0094575883805781
  42    0.0012070482938057
  43    -0.00010592612844038
  44      0.16764431452276
  45      0.50526890800598
  46     -0.29749179921217
  47     -0.14060867578449
  48      0.11836133089631
  49      0.16666507659561
  50      0.50507452654373
  51     -0.29789182614279
  52    -0.032027759643373
  53     -0.18061083322566
  54       0.1673114853284
  55      0.50524286972924
  56      -0.2976101290198
  57      0.17249742960421
  58     0.063030498307537
 Sym= A
 Ene=              14
 Spin= Alpha
 Occup=    0.00000
   1    -0.062237863220571
   2    -0.072603121970845
   3       1.2039006216497
   4      0.12835204552995
   5      0.02530390138795
   6     0.012845179701845
   7      0.43492304396788
   8      -0.8336528891976
   9      -0.3677166752534
  10    0.0067133132645404
  11    -0.055802836055446
  12    -0.010292273363983
  13     0.038500127174927
  14     -0.10191419208253
  15        0.406960068701
  16      0.71692866712165
  17      -3.4070935177952
  18     -0.16788984681105
  19     0.069195551878721
  20     0.042538982304929
  21     0.099822961006312
  22       2.4072790458826
  23       1.2682150298581
  24      0.11045083511617
  25      0.14229933468169
  26     -0.31269615051157
  27       0.1372649910018
  28      0.25718136651073
  29     0.077270472825622
  30     -0.25620949724708
  31     0.033182636095286
  32     -0.26381012017265
  33    -0.026184943713437
  34       1.6721311132078
  35       1.8892100689978
  36     -0.25608597939392
  37      0.40068047817602
  38      0.24385366483456
  39     0.024356854254487
  40     -0.35617455148031
  41     0.041544460872204
  42     -0.13641869920534
  43     -0.21396150988157
  44     -0.04773038417034
  45       0.1360996148285
  46    -0.015874296701946
  47     0.051974303412306
  48     0.037061397943743
  49    -0.062939047752415
  50     0.099828303232789
  51    -0.049241541453546
  52     0.059090032138689
  53     0.021143086059522
  54     -0.10710307152702
  55     -0.40542325892922
  56     0.047676382187179
  57     0.018171356723662
  58      0.01797830926369
 Sym= A
 Ene=              15
 Spin= Alpha
 Occup=    0.00000
   1     0.062252959802888
   2     0.072634934088634
   3      -1.2039871384336
   4     -0.12835622176113
   5     0.023587205664242
   6    -0.015569942550333
   7     -0.43489305892829
   8     -0.73606159221995
   9      0.53730662458302
  10     0.016698482367093
  11     0.060332147484323
  12    -0.026190161307674
  13    -0.024845427833342
  14    -0.099190883165389
  15     -0.40696117646808
  16     -0.71692797267516
  17       3.4070665191582
  18      0.16792175078237
  19     0.071880211957016
  20     -0.03797569402198
  21    -0.099846952432502
  22       2.3029152296517
  23      -1.4492303108865
  24     -0.12731711352685
  25     -0.15124255427975
  26     -0.30187329850439
  27     -0.14708746609701
  28      0.25200468441786
  29    -0.026666598892882
  30      0.35580852849879
  31    -0.040658210699877