[Molden Format]
made by pyscf v[2.0.1]
[Atoms] (AU)
C   1   6     0.00000000000000     0.00000000000000     0.00000000000000
C   2   6     2.85207482267819     0.00000000000000     0.00000000000000
F   3   9     3.65415199667903     0.00000000000000     2.45977207315200
H   4   1     3.58561868306314    -1.67891019462705    -0.93677358840720
H   5   1     3.58561868306314     1.67891019462705    -0.93677358840720
H   6   1    -0.73354386038494    -1.67891019462705     0.93677358840720
F   7   9    -0.80207717400084     0.00000000000000    -2.45977207315200
H   8   1    -0.73354386038494     1.67891019462705     0.93677358840720
[GTO]
1 0
 s    8 1.00
                  6665  0.00069158396281299
                  1000  0.0053257961529341
                   228   0.027060721042034
                 64.71    0.10165684614077
                 21.06     0.2745748236174
                 7.495    0.44829431892377
                 2.797    0.28490261071525
                0.5215   0.015194859206082
 s    8 1.00
                  6665  -0.00029326965268655
                  1000  -0.0023180354739745
                   228  -0.011499786038565
                 64.71  -0.046826727009787
                 21.06   -0.12846616875047
                 7.495   -0.30126627246289
                 2.797   -0.25563070233011
                0.5215      1.093793361012
 s    1 1.00
                0.1596                   1
 p    3 1.00
                 9.439   0.056979251590039
                 2.002    0.31320721150073
                0.5456    0.76037674173753
 p    1 1.00
                0.1517                   1
 d    1 1.00
                  0.55                   1

2 0
 s    8 1.00
                  6665  0.00069158396281299
                  1000  0.0053257961529341
                   228   0.027060721042034
                 64.71    0.10165684614077
                 21.06     0.2745748236174
                 7.495    0.44829431892377
                 2.797    0.28490261071525
                0.5215   0.015194859206082
 s    8 1.00
                  6665  -0.00029326965268655
                  1000  -0.0023180354739745
                   228  -0.011499786038565
                 64.71  -0.046826727009787
                 21.06   -0.12846616875047
                 7.495   -0.30126627246289
                 2.797   -0.25563070233011
                0.5215      1.093793361012
 s    1 1.00
                0.1596                   1
 p    3 1.00
                 9.439   0.056979251590039
                 2.002    0.31320721150073
                0.5456    0.76037674173753
 p    1 1.00
                0.1517                   1
 d    1 1.00
                  0.55                   1

3 0
 s    8 1.00
                 14710  0.00072067370873197
                  2207  0.0055504869689163
                 502.8   0.028254207662589
                 142.6    0.10639582836653
                 46.47    0.28668420124307
                  16.7    0.44843796582416
                 6.356    0.26464118141135
                 1.316   0.015326060993048
 s    8 1.00
                 14710  -0.00032119389049893
                  2207  -0.0025461915683188
                 502.8  -0.012643359507821
                 142.6   -0.05195749170489
                 46.47   -0.14344713812646
                  16.7   -0.33243762329603
                 6.356   -0.21865906750347
                 1.316     1.0955904138622
 s    1 1.00
                0.3897                   1
 p    3 1.00
                 22.67   0.064834021493887
                 4.977    0.34053535983101
                 1.347    0.73464640679382
 p    1 1.00
                0.3471                   1
 d    1 1.00
                  1.64                   1

4 0
 s    3 1.00
                 13.01   0.033498726389998
                 1.962    0.23480080117413
                0.4446     0.8136829578829
 s    1 1.00
                 0.122                   1
 p    1 1.00
                 0.727                   1

5 0
 s    3 1.00
                 13.01   0.033498726389998
                 1.962    0.23480080117413
                0.4446     0.8136829578829
 s    1 1.00
                 0.122                   1
 p    1 1.00
                 0.727                   1

6 0
 s    3 1.00
                 13.01   0.033498726389998
                 1.962    0.23480080117413
                0.4446     0.8136829578829
 s    1 1.00
                 0.122                   1
 p    1 1.00
                 0.727                   1

7 0
 s    8 1.00
                 14710  0.00072067370873197
                  2207  0.0055504869689163
                 502.8   0.028254207662589
                 142.6    0.10639582836653
                 46.47    0.28668420124307
                  16.7    0.44843796582416
                 6.356    0.26464118141135
                 1.316   0.015326060993048
 s    8 1.00
                 14710  -0.00032119389049893
                  2207  -0.0025461915683188
                 502.8  -0.012643359507821
                 142.6   -0.05195749170489
                 46.47   -0.14344713812646
                  16.7   -0.33243762329603
                 6.356   -0.21865906750347
                 1.316     1.0955904138622
 s    1 1.00
                0.3897                   1
 p    3 1.00
                 22.67   0.064834021493887
                 4.977    0.34053535983101
                 1.347    0.73464640679382
 p    1 1.00
                0.3471                   1
 d    1 1.00
                  1.64                   1

8 0
 s    3 1.00
                 13.01   0.033498726389998
                 1.962    0.23480080117413
                0.4446     0.8136829578829
 s    1 1.00
                 0.122                   1
 p    1 1.00
                 0.727                   1

[5d]
[7f]
[9g]

[MO]
 Sym= A
 Ene=               0
 Spin= Alpha
 Occup=    1.00000
   1        1.002211963646
   2    -0.00089313551649089
   3    -0.011521888836603
   4    0.00057406454268355
   5    5.2248305573658e-11
   6    -0.0024361963491586
   7    -0.00079812271021093
   8    2.1790315129165e-11
   9    -0.0012462991045791
  10    0.0001165248155271
  11    1.8182711394475e-05
  12    -3.2431620265095e-13
  13    -0.00010391502779516
  14    -2.3120131286109e-12
  15    -9.7215610583574e-05
  16    -0.00064695363335815
  17    0.0022092076762176
  18    0.0011161646463303
  19    5.0347174810028e-12
  20    -0.00013659188945437
  21    -0.00088477607860947
  22    1.2047341200493e-12
  23    2.8165265737157e-05
  24    0.00021423082311456
  25    -1.8771040136633e-05
  26    6.3771670912371e-13
  27    -0.0002868505844288
  28    -2.3764527265525e-12
  29    -3.7577580111081e-05
  30    3.2446722164815e-05
  31    0.00022178268408294
  32    -0.00026880890666467
  33    5.0542642852191e-12
  34    -7.7487929035049e-05
  35    -0.00044500165901847
  36    3.0940935849036e-12
  37    -4.8336545436772e-05
  38    -5.5453539339119e-07
  39    -5.5695535912034e-06
  40    -1.3601660667101e-13
  41    2.3543070235442e-05
  42    -1.0931540790604e-13
  43    1.4774041689586e-05
  44    0.00025286015326039
  45    -5.9206269972315e-05
  46    2.2239296095272e-05
  47    1.0667605712132e-05
  48    1.4774042634291e-05
  49    0.00025286014809017
  50    -5.9206270172761e-05
  51    -2.2239296911112e-05
  52    1.066760602594e-05
  53    -0.0030867040486707
  54    0.00080238297384917
  55    -9.6848480401403e-05
  56    -0.00051425269389362
  57    0.00033856644448599
  58    0.00015160139427291
  59    4.1710321336797e-05
  60    -0.0002921911687578
  61    -0.00037438483344093
  62    4.9408908450999e-11
  63    -0.00091821781590484
  64    -0.00048275204285829
  65    3.1650259680822e-11
  66    -0.0014630685946275
  67    -0.000313294833853
  68    -0.00016274768366849
  69    1.6836524147962e-12
  70    -2.4949276505989e-05
  71    5.342688737108e-13
  72    -0.0030867039806507
  73    0.00080238299462397
  74    -9.6848477385893e-05
  75    0.00051425269088896
  76    0.00033856644188276
 Sym= A
 Ene=               1
 Spin= Alpha
 Occup=    1.00000
   1    -9.721594517893e-05
   2    -0.00064690822411096
   3    0.0022092373178742
   4    -0.0011161099566296
   5    8.9761653836271e-12
   6    0.0001365902221781
   7    0.00088479645855633
   8    5.618469055055e-12
   9    -2.8169290632669e-05
  10    0.00021422825084235
  11    -1.8772183774004e-05
  12    -1.7179353750761e-12
  13    -0.00028684611508095
  14    -4.4742276100712e-13
  15       1.0022119637221
  16    -0.00089309299472908
  17    -0.011521858983403
  18    -0.00057411806847031
  19    5.8861204473102e-12
  20    0.0024361841679164
  21    0.00079810463546048
  22    4.2232231194773e-13
  23    0.0012462995384827
  24    0.00011651970093578
  25    1.8181974047101e-05
  26    -8.8775331044684e-14
  27    -0.00010391044138869
  28    -1.2598060972874e-13
  29    0.00015160855850112
  30    4.1703488519881e-05
  31    -0.00029220235688431
  32    0.00037441050146004
  33    2.0447834188586e-12
  34    0.00091822573876482
  35    0.00048277390266754
  36    1.2067083081525e-12
  37    0.0014630744387878
  38    -0.00031329497528184
  39    -0.0001627475430127
  40    -1.2305875241712e-13
  41    -2.4949197869606e-05
  42    -3.6385272061411e-14
  43    -0.0030866966272803
  44    0.00080237878388443
  45    9.6846680441131e-05
  46    -0.00051425158521321
  47    -0.00033856615301313
  48    -0.0030866966194366
  49    0.00080237878872212
  50    9.6846679917027e-05
  51    0.00051425158472674
  52    -0.0003385661526722
  53    1.4778524633885e-05
  54    0.00025285514920627
  55    5.9207865998809e-05
  56    2.2240115342896e-05
  57    -1.0668231190202e-05
  58    -3.7583576569995e-05
  59    3.2446138728155e-05
  60    0.00022177636877697
  61    0.00026881243829376
  62    3.8724231242297e-11
  63    7.7488938021776e-05
  64    0.00044499985770767
  65    2.6741877522912e-11
  66    4.8336250651565e-05
  67    -5.5435997690303e-07
  68    -5.5685652601034e-06
  69    8.2407492358768e-13
  70    2.3543415812493e-05
  71    3.1061919691855e-13
  72    1.4778531276791e-05
  73    0.00025285514679949
  74    5.9207866456175e-05
  75    -2.2240116005487e-05
  76    -1.0668231483489e-05
 Sym= A
 Ene=               2
 Spin= Alpha
 Occup=    1.00000
   1    2.8580762930059e-05
   2    2.9011578462747e-05
   3    -0.0010241175249595
   4    -0.0001086228566587
   5    -9.295347350012e-12
   6    2.2875136803756e-05
   7    -0.00070949054928687
   8    -4.6182475082352e-11
   9    -0.00014033369434551
  10    8.3323529467671e-05
  11    -1.3785832033843e-05
  12    -3.3808460765143e-12
  13    -5.1786006046834e-05
  14    -2.2329189813104e-12
  15    -5.2902160618485e-05
  16    4.5724476197429e-05
  17    0.0033171484758857
  18    0.00022570369443487
  19    3.9712124037926e-12
  20    0.00052017653336337
  21    -0.00018366888545371
  22    4.6672332685562e-11
  23    0.0013021928107866
  24    -1.0918231063747e-05
  25    1.0473244348626e-05
  26    4.4641061206636e-11
  27    1.1985681088318e-05
  28    9.5775683143292e-12
  29       1.0009707899749
  30    -0.0039510589984227
  31    -0.010669993590653
  32    -0.00095398458756611
  33    8.504323765879e-10
  34    -0.0027229000253349
  35    2.1736164795294e-05
  36    6.0037515858358e-10
  37    8.5424743172051e-05
  38    -0.00015543682351968
  39    -8.9378575915557e-05
  40    -1.5202684841403e-11
  41    -9.7651250074325e-06
  42    -5.957522074185e-12
  43    -0.00026368862326926
  44    -0.00017348286453134
  45    2.8831248135788e-06
  46    -1.5510916493701e-05
  47    -0.00016396829748387
  48    -0.00026368873972391
  49    -0.00017348299101247
  50    2.8831248456051e-06
  51    1.5510913245813e-05
  52    -0.00016396830167302
  53    4.2137247814554e-05
  54    -0.0001380148952313
  55    -4.1879044085049e-05
  56    -1.4934860933908e-05
  57    -1.4082646757297e-05
  58    -2.7934134203629e-05
  59    -4.796228282255e-05
  60    0.00012937557062285
  61    -2.6671269439103e-05
  62    7.3725162554429e-11
  63    6.9789977004417e-06
  64    0.00017244560262468
  65    5.6865459114047e-11
  66    1.1289457031092e-05
  67    -5.5900677360927e-06
  68    -3.0479930907896e-06
  69    1.198035271925e-12
  70    4.6861246565637e-07
  71    2.6256284834168e-13
  72    4.2137238989684e-05
  73    -0.00013801482668925
  74    -4.18790392329e-05
  75    1.4934859054929e-05
  76    -1.40826463889e-05
 Sym= A
 Ene=               3
 Spin= Alpha
 Occup=    1.00000
   1    -5.2501222107542e-05
   2    4.7920369923778e-05
   3    0.0033185245350023
   4    -0.00022683881074099
   5    4.5107389382392e-11
   6    -0.00052294165195172
   7    0.00018335009040857
   8    3.4870640368649e-10
   9    -0.0013024748747727
  10    -1.1153233150913e-05
  11    1.0646198124544e-05
  12    -3.0261781645817e-10
  13    1.2087732810023e-05
  14    -6.4878694611194e-11
  15    2.8632258483341e-05
  16    2.9213322211415e-05
  17    -0.0010237406475328
  18    0.00010840270729239
  19    -6.8254861103736e-11
  20    -2.3095885288468e-05
  21    0.00070983903144277
  22    -3.415041809702e-10
  23    0.00014048300516473
  24    8.3308471652347e-05
  25    -1.3612667052773e-05
  26    -9.3000534150744e-13
  27    -5.1767539619254e-05
  28    9.2642780777094e-12
  29    -2.7759134996362e-05
  30    -4.7814920632035e-05
  31    0.00012928378895765
  32    2.6715325988894e-05
  33    4.0737374896313e-11
  34    -7.0447853139379e-06
  35    -0.00017241800988799
  36    6.1740759319338e-11
  37    -1.1244249324214e-05
  38    -5.5924477690999e-06
  39    -3.0522307882045e-06
  40    1.3919745257767e-13
  41    4.6276534082063e-07
  42    1.4415135285582e-12
  43    4.2191162363379e-05
  44    -0.00013843818476207
  45    4.1872297074837e-05
  46    -1.4945200918958e-05
  47    1.4063385417857e-05
  48    4.2191160124493e-05
  49    -0.0001384376519515
  50    4.1872264150644e-05
  51    1.4945189882772e-05
  52    1.4063385049544e-05
  53    -0.00026380541169931
  54    -0.00017432013487056
  55    -2.9346572966923e-06
  56    -1.5542485135201e-05
  57    0.00016385459487532
  58       1.0009704663946
  59    -0.0039763086424506
  60    -0.010699820169031
  61    0.00095228759022806
  62    5.7715928420089e-09
  63    0.0027373944830821
  64    -2.3002660187134e-05
  65    4.0711454413612e-09
  66    -7.5241960398532e-05
  67    -0.00015513566163678
  68    -8.9331423099337e-05
  69    1.0344183883485e-10
  70    -9.7837849113137e-06
  71    4.0611392748093e-11
  72    -0.00026380618368092
  73    -0.00017432102866416
  74    -2.9346593791852e-06
  75    1.554246329529e-05
  76    0.0001638546225991
 Sym= A
 Ene=               4
 Spin= Alpha
 Occup=    1.00000
   1    -1.1145267789394e-10
   2    -1.5800563176355e-09
   3    -6.1920147150826e-09
   4    -1.0142376130176e-10
   5    0.0084276283935324
   6    9.2442866741561e-09
   7    -1.5096330024976e-08
   8     0.041553921492108
   9    -6.8537405790368e-09
  10    -7.3557989452386e-09
  11    1.2052550878455e-08
  12    -0.034815394116068
  13    5.6756163636949e-09
  14    -0.0075881721593892
  15    5.9192833684227e-10
  16    1.3987221739127e-08
  17    3.5662455730406e-08
  18    -1.7976084806381e-08
  19    -0.0073533009573352
  20    -4.4126484485944e-10
  21    -1.3179786262372e-08
  22    -0.039232179413612
  23    1.407291637647e-08
  24    -1.6831090728733e-09
  25    -4.0191728646614e-10
  26    -0.00017664271799813
  27    1.6394280281043e-11
  28    0.00090509854723445
  29    6.608420456418e-10
  30    -1.0380113897887e-09
  31    -1.1968686946026e-08
  32    5.5667589278276e-09
  33     0.003086557769978
  34    5.890805881126e-09
  35    5.0959863234389e-09
  36    0.0059306881242745
  37    7.0894645220073e-09
  38    -1.8381252872703e-10
  39    2.7351082904862e-10
  40    3.8756204642495e-05
  41    1.3756339817609e-10
  42    0.0001717364509039
  43    -0.00017226712859837
  44    -0.030673760499587
  45    0.0019050390864187
  46    -0.00066123876703384
  47    1.4923000027549e-06
  48    0.00017227377253416
  49     0.030673750938367
  50    -0.0019050388774563
  51    -0.00066123910739295
  52    -1.4926588938407e-06
  53     0.042294930912068
  54     0.050852109060648
  55    3.3050419826176e-05
  56    -0.0013470035739658
  57    -0.0015134142169503
  58    -6.8922399687524e-09
  59    6.9002403511249e-08
  60    7.3477023268011e-08
  61    -2.8431909157213e-07
  62      0.66660278687035
  63    5.4668975801972e-08
  64    -2.0152087733033e-07
  65      0.46999613316981
  66    3.7111186085809e-08
  67    2.3338127836151e-09
  68    -4.8268225346828e-09
  69       0.0119965724088
  70    -1.8299634597313e-09
  71    0.0047028344254665
  72    -0.042294947625556
  73    -0.050852125167268
  74    -3.3048483601277e-05
  75    -0.0013470041289547
  76    0.0015134160175177
 Sym= A
 Ene=               5
 Spin= Alpha
 Occup=    1.00000
   1    -5.0142732286334e-11
   2    -2.3180329955883e-10
   3    -9.8053332749987e-10
   4    -2.3956116279871e-10
   5    -0.0073532992197595
   6    5.4352687494431e-11
   7    -1.2021694210137e-10
   8    -0.039232179136451
   9    4.6016768883947e-10
  10    -4.0985348333463e-13
  11    -8.5744209964227e-11
  12    0.00017664295842781
  13    2.3623136567614e-11
  14    -0.00090509898079182
  15    -1.6751794372342e-10
  16    -4.6435024137365e-10
  17    -3.4464991766908e-11
  18    -7.6816321810512e-10
  19    0.0084276211988341
  20    -1.370222332998e-09
  21    -6.4937349519834e-10
  22     0.041553919036287
  23    -3.9986811715301e-10
  24    2.2221803271482e-10
  25    -4.5437869807004e-10
  26     0.034815394486638
  27    -1.9166606875896e-10
  28    0.0075881717863737
  29    -1.1887643344637e-09
  30    8.367980893069e-09
  31    1.013432372518e-08
  32    -8.4421117891271e-09
  33      0.66660278732071
  34    8.0684482461122e-09
  35    -6.0010671424334e-09
  36      0.46999613390836
  37    5.6224431755414e-09
  38    -2.0375707759866e-10
  39    1.078276327367e-10
  40    -0.011996572304448
  41    5.7758534472018e-11
  42    -0.0047028344062851
  43     0.042294945221434
  44     0.050852120070677
  45    -3.3049686521989e-05
  46    -0.0013470036329527
  47    0.0015134152942005
  48    -0.042294944063897
  49    -0.050852118834493
  50    3.3049662436966e-05
  51    -0.0013470036985761
  52    -0.0015134153354348
  53    -0.00017227231035162
  54    -0.030673756877784
  55    -0.0019050390509462
  56    -0.00066123894588077
  57    -1.4924438130593e-06
  58    -5.4695574925929e-11
  59    -6.3854994290228e-11
  60    3.1783755007076e-10
  61    -1.9762339393134e-10
  62    0.0030865564145885
  63    -5.2034563840957e-11
  64    -1.3517423857765e-10
  65    0.0059306871203994
  66    8.9367945104946e-11
  67    1.2984208211596e-12
  68    -1.1034385930602e-11
  69    -3.8756197259273e-05
  70    -2.1072248486933e-12
  71    -0.00017173646408418
  72    0.00017227222053869
  73     0.030673757490671
  74    0.0019050390757036
  75    -0.00066123896124291
  76    1.4924175557208e-06
 Sym= A
 Ene=               6
 Spin= Alpha
 Occup=    1.00000
   1    -0.0022336167796225
   2    -0.0039790775568774
   3    0.0091507446349444
   4    0.0098842571815491
   5    3.231391103284e-09
   6    -0.0019193243597868
   7     0.036005006207803
   8    1.7776975226681e-08
   9      0.01698006933259
  10     0.017116331506533
  11    -0.027654698034116
  12    -1.5049038096519e-08
  13    -0.012851383279385
  14    -3.2737047985456e-09
  15    -0.0017371435215329
  16    -0.030108294160908
  17    -0.078474879990378
  18     0.036235460439914
  19    -3.4151791306062e-09
  20    -0.00012721913782441
  21     0.025500507019868
  22    -1.7032179223513e-08
  23    -0.031791968333435
  24    0.0030116290728597
  25    -0.00032841000332867
  26    -6.1063975452419e-11
  27    0.00025303498598608
  28    4.0468220050178e-10
  29    -0.0018481336186683
  30    0.00081722300191062
  31     0.026053601962072
  32    -0.0071573747207407
  33    1.5129215577957e-09
  34    -0.0093948868252903
  35    -0.0073154939794564
  36    2.7060171513463e-09
  37    -0.013717775028146
  38    0.00031374235661852
  39    -0.00067478145305645
  40    1.6976286527059e-11
  41    -0.00028606217762439
  42    7.4270777046686e-11
  43    -0.007306587878859
  44     0.012767340726485
  45    -0.00031869798923238
  46    -0.00026828657469728
  47    0.0004504766190158
  48    -0.007306588053448
  49      0.01276736714825
  50    -0.00031869962342888
  51    0.00026828601897442
  52    0.00045047660340713
  53     0.021570536927593
  54     0.022704830447981
  55    -0.0016421127491391
  56    -0.00015640285492982
  57    -0.0014026294731383
  58    -0.0019722680586418
  59    -0.0031777041829456
  60     0.013530799398801
  61      0.63191766421763
  62    2.8785119310574e-07
  63        -0.20610704543
  64      0.44805620576804
  65    2.0298069101233e-07
  66     -0.14204271200831
  67    -0.0068688203858555
  68     0.010327049109014
  69    5.174196298468e-09
  70    0.0041284440137607
  71    2.0289830925252e-09
  72     0.021570499841913
  73      0.02270478637466
  74    -0.0016421127985926
  75    0.00015640171476383
  76    -0.0014026281437646
 Sym= A
 Ene=               7
 Spin= Alpha
 Occup=    1.00000
   1    0.0017371290729281
   2     0.030108223409373
   3     0.078474920297371
   4     0.036235732231474
   5    -1.8472252437563e-10
   6    -0.00012742205551241
   7     0.025500737724032
   8    -7.2028778873416e-10
   9    -0.031792067596636
  10    -0.003011626887666
  11    0.00032838432145407
  12    6.7487553753394e-11
  13    -0.00025301996282739
  14    6.2923170267457e-12
  15    0.0022335046722254
  16    0.0039786689130336
  17    -0.0091510514788757
  18    0.0098838582521641
  19    2.2119674689597e-10
  20    -0.0019197090212896
  21     0.036004940863484
  22    7.6120195959699e-10
  23     0.016980123579106
  24    -0.017116280171146
  25     0.027654743828415
  26    5.4930497327264e-10
  27     0.012851404375964
  28    1.2431831068542e-10
  29    0.0019816379910731
  30    0.0031836956007862
  31      -0.0135238603193
  32      0.63191853336074
  33    1.0579993981599e-08
  34     -0.20610445603494
  35       0.4480568317143
  36    7.4481541637413e-09
  37      -0.1420408551359
  38    0.0068687736632164
  39     -0.01032707336253
  40    -1.9174933397175e-10
  41    -0.004128446423577
  42    -7.5203970309108e-11
  43    -0.021570653000966
  44    -0.022704723072907
  45    -0.0016421297704458
  46    0.00015640229427004
  47    -0.0014026556188384
  48    -0.021570654232579
  49    -0.022704724754445
  50    -0.0016421297666582
  51    -0.00015640233795889
  52    -0.0014026556629447
  53    0.0073064049949354
  54    -0.012767350092832
  55    -0.00031870227375228
  56    0.00026827281188411
  57    0.00045047759694335
  58    0.0018478918821886
  59    -0.00081724971351221
  60    -0.026053632203537
  61    -0.0071573301068112
  62    -1.2512811950088e-09
  63    -0.0093948639913691
  64    -0.0073154821131786
  65    -8.2002528215062e-10
  66    -0.013717751057593
  67    -0.0003137439992517
  68    0.00067478830025179
  69    -2.4859449466934e-11
  70    0.0002860657913881
  71    -1.1982706499661e-11
  72    0.0073064050815292
  73    -0.012767348966349
  74    -0.00031870221671626
  75    -0.00026827282545931
  76    0.00045047759385167
 Sym= A
 Ene=               8
 Spin= Alpha
 Occup=    1.00000
   1    0.0018404941489169
   2      0.15016219215676
   3    -0.013633688695875
   4    -0.094198860188774
   5    3.3774429692923e-09
   6     -0.28719326022237
   7    -0.026137165454562
   8    1.2803849420083e-09
   9    -0.045258632069407
  10     0.050515129547364
  11     0.028006486355902
  12    1.0524862588644e-10
  13    0.0056312043141108
  14    -1.2022198674728e-10
  15    -1.0752029595877e-05
  16    -0.017979037913323
  17    0.0094008293687371
  18     0.020641175415479
  19    4.0256503922323e-10
  20    -0.0095849252357847
  21    0.0040449086834939
  22    2.296090216151e-10
  23    -0.0077394964601496
  24    -0.0021249790615618
  25     0.010733169949014
  26    3.1495940637296e-11
  27    0.0027083327271627
  28    -1.5813567725093e-10
  29    0.00033888146608982
  30    0.0068327510546356
  31      0.01297113500023
  32    -0.013459620553923
  33    1.5558988289072e-10
  34    -0.011051752563872
  35    -0.012791243217569
  36    6.235292666104e-11
  37    -0.0066311760622847
  38    0.00019600642675186
  39    -0.00015739964963915
  40    -6.8473187377176e-12
  41    -0.00023443788882724
  42    -6.7783853719626e-12
  43    -0.0048482044140041
  44    -0.0048217629652003
  45    0.00084982226953505
  46    9.8022573624635e-05
  47    -0.0012249814279139
  48    -0.0048482042611553
  49    -0.0048217634734313
  50    0.00084982226745073
  51    -9.802262396224e-05
  52    -0.0012249814040026
  53    -0.012072429385615
  54    -0.019451370457793
  55    -0.0013850641339731
  56    0.0019880406957272
  57    -0.010131705476714
  58    -0.0043825924636282
  59      0.15179928277407
  60       0.1226746442759
  61      0.15666366950443
  62    7.8788005885009e-10
  63      0.48055519124934
  64      0.10386818297581
  65    3.4646231371575e-10
  66      0.31655797524903
  67     0.017907678188523
  68     0.011093688816023
  69    6.5965698448906e-11
  70    0.0019487239503552
  71    1.7777714040891e-11
  72     -0.01207242464855
  73    -0.019451368758869
  74    -0.0013850639384556
  75    -0.0019880408818618
  76     -0.01013170565751
 Sym= A
 Ene=               9
 Spin= Alpha
 Occup=    1.00000
   1    1.0746148708318e-05
   2     0.017979031790795
   3    -0.0094007131459622
   4     0.020642437179675
   5    -4.1992955290103e-10
   6    -0.0095852488641629
   7    0.0040453812040267
   8    -2.7094060428732e-10
   9    -0.0077397278086153
  10    0.0021249504658793
  11    -0.010733157709585
  12    1.0844883532724e-10
  13    -0.0027082457176041
  14    3.9332690284718e-12
  15    -0.001840497225272
  16     -0.15016191835162
  17      0.01363391631772
  18    -0.094199952494959
  19    -7.1224614592314e-10
  20     -0.28719294578373
  21     -0.02613757037207
  22    -1.8883848715483e-10
  23    -0.045258446834471
  24    -0.050515162293752
  25    -0.028006459419659
  26    -6.9884474691998e-12
  27    -0.0056311227031528
  28    -1.8454801556776e-11
  29    0.0043822219064016
  30     -0.15179984516204
  31     -0.12267536829591
  32      0.15666400510816
  33    -6.8700944646179e-10
  34      0.48055477938638
  35      0.10386849586577
  36    -4.4920584419547e-10
  37      0.31655768552265
  38    -0.017907675121564
  39    -0.011093677944241
  40    2.3048129548176e-11
  41    -0.0019487206066966
  42    7.2590227608998e-12
  43     0.012072053468934
  44     0.019451147340145
  45    -0.0013850808368237
  46    -0.0019880699991669
  47    -0.010131709363337
  48     0.012072052546681
  49     0.019451146918783
  50    -0.0013850807843705
  51    0.0019880700482847
  52    -0.010131709400326
  53    0.0048476655047322
  54    0.0048215263186653
  55    0.00084983453989258
  56    -9.8069262819059e-05
  57    -0.0012249665506149
  58    -0.00033889436956017
  59    -0.006832673934136
  60    -0.012971104802052
  61    -0.013459677884183
  62    -2.2518199876702e-09
  63    -0.011051878539534
  64    -0.012791365448973
  65    -1.5612440088498e-09
  66    -0.0066312578686103
  67    -0.00019602035657072
  68    0.00015741223906106
  69    -4.6126694752231e-11
  70    0.00023444383258491
  71    -1.8047537430258e-11
  72    0.0048476653021745
  73    0.0048215265448712
  74    0.00084983451852798
  75    9.8069300198654e-05
  76    -0.0012249665385441
 Sym= A
 Ene=              10
 Spin= Alpha
 Occup=    1.00000
   1    -0.0068802467447657
   2    -0.036424246354395
   3    -0.025385014259189
   4     0.017383030712979
   5    -1.2831165735489e-09
   6     0.051276521500936
   7    -0.00090764244668863
   8    -6.0431088077091e-09
   9    0.0025325248902136
  10     0.001683660516138
  11    0.0016888406355858
  12    5.043598436793e-09
  13    0.00021091347667719
  14    1.1011625580264e-09
  15    -0.00058087655872296
  16    0.00021900789406508
  17    0.0058175705353845
  18    -0.0022056237489199
  19    1.0425911635664e-09
  20    0.0044675075020827
  21    -0.010701138317961
  22    5.6726224435664e-09
  23    0.0028842981024226
  24    -0.00036589765465692
  25    -0.0030042926836585
  26    2.3064145441571e-11
  27    -0.00023109793718472
  28    -1.2940626526373e-10
  29    -0.00037883428525824
  30    -0.0022318850506906
  31    -0.0020687495950196
  32    0.0033334340225403
  33    -5.0044063035425e-10
  34     0.002297491953713
  35    0.0028311466927478
  36    -8.9513978824908e-10
  37    0.0011180255892724
  38    -1.4101972841835e-06
  39    0.00013704291729135
  40    -4.3540441592132e-12
  41    0.0001395564630915
  42    -2.4355792880137e-11
  43    -0.00058927096691761
  44    0.0054917689671587
  45    0.0002077382583266
  46    0.00016738913807592
  47    0.00023289691552515
  48    -0.00058927103500206
  49    0.0054917600854246
  50    0.00020773881138709
  51    -0.00016738894449577
  52    0.00023289691492664
  53    0.00068611021045312
  54     0.011917112902692
  55    0.0012809329040272
  56    0.00084398670242121
  57    0.0022080081597123
  58    0.0063164233364533
  59      0.46900427275011
  60      0.55055527261563
  61     -0.07610935166628
  62    -9.6617346325037e-08
  63      -0.2300075755039
  64    -0.052744888130211
  65    -6.8117500529183e-08
  66     -0.16231303600294
  67    -0.0042430487564615
  68    -0.0025798390728701
  69    -1.7397214798624e-09
  70    -0.00035884590960717
  71    -6.8185930730919e-10
  72    0.0006861223834148
  73     0.011917127608956
  74    0.0012809329098269
  75    -0.0008439863083589
  76     0.002208007724418
 Sym= A
 Ene=              11
 Spin= Alpha
 Occup=    1.00000