[Molden Format]
made by pyscf v[2.0.1]
[Atoms] (AU)
C   1   6     0.00000000000000     0.00000000000000     0.00000000000000
C   2   6     2.85207482267819     0.00000000000000     0.00000000000000
F   3   9     3.65415199667903     0.00000000000000     2.45977207315200
H   4   1     3.58561868306314    -1.67891019462705    -0.93677358840720
H   5   1     3.58561868306314     1.67891019462705    -0.93677358840720
H   6   1    -0.73354386038494    -1.88826628079960    -0.36157246902272
F   7   9    -0.80207717400084     1.58111101127508    -1.88429472797734
H   8   1    -0.73354386038494     0.68397336938011     1.79679287274265
[GTO]
1 0
 s    8 1.00
                  6665  0.00069158396281299
                  1000  0.0053257961529341
                   228   0.027060721042034
                 64.71    0.10165684614077
                 21.06     0.2745748236174
                 7.495    0.44829431892377
                 2.797    0.28490261071525
                0.5215   0.015194859206082
 s    8 1.00
                  6665  -0.00029326965268655
                  1000  -0.0023180354739745
                   228  -0.011499786038565
                 64.71  -0.046826727009787
                 21.06   -0.12846616875047
                 7.495   -0.30126627246289
                 2.797   -0.25563070233011
                0.5215      1.093793361012
 s    1 1.00
                0.1596                   1
 p    3 1.00
                 9.439   0.056979251590039
                 2.002    0.31320721150073
                0.5456    0.76037674173753
 p    1 1.00
                0.1517                   1
 d    1 1.00
                  0.55                   1

2 0
 s    8 1.00
                  6665  0.00069158396281299
                  1000  0.0053257961529341
                   228   0.027060721042034
                 64.71    0.10165684614077
                 21.06     0.2745748236174
                 7.495    0.44829431892377
                 2.797    0.28490261071525
                0.5215   0.015194859206082
 s    8 1.00
                  6665  -0.00029326965268655
                  1000  -0.0023180354739745
                   228  -0.011499786038565
                 64.71  -0.046826727009787
                 21.06   -0.12846616875047
                 7.495   -0.30126627246289
                 2.797   -0.25563070233011
                0.5215      1.093793361012
 s    1 1.00
                0.1596                   1
 p    3 1.00
                 9.439   0.056979251590039
                 2.002    0.31320721150073
                0.5456    0.76037674173753
 p    1 1.00
                0.1517                   1
 d    1 1.00
                  0.55                   1

3 0
 s    8 1.00
                 14710  0.00072067370873197
                  2207  0.0055504869689163
                 502.8   0.028254207662589
                 142.6    0.10639582836653
                 46.47    0.28668420124307
                  16.7    0.44843796582416
                 6.356    0.26464118141135
                 1.316   0.015326060993048
 s    8 1.00
                 14710  -0.00032119389049893
                  2207  -0.0025461915683188
                 502.8  -0.012643359507821
                 142.6   -0.05195749170489
                 46.47   -0.14344713812646
                  16.7   -0.33243762329603
                 6.356   -0.21865906750347
                 1.316     1.0955904138622
 s    1 1.00
                0.3897                   1
 p    3 1.00
                 22.67   0.064834021493887
                 4.977    0.34053535983101
                 1.347    0.73464640679382
 p    1 1.00
                0.3471                   1
 d    1 1.00
                  1.64                   1

4 0
 s    3 1.00
                 13.01   0.033498726389998
                 1.962    0.23480080117413
                0.4446     0.8136829578829
 s    1 1.00
                 0.122                   1
 p    1 1.00
                 0.727                   1

5 0
 s    3 1.00
                 13.01   0.033498726389998
                 1.962    0.23480080117413
                0.4446     0.8136829578829
 s    1 1.00
                 0.122                   1
 p    1 1.00
                 0.727                   1

6 0
 s    3 1.00
                 13.01   0.033498726389998
                 1.962    0.23480080117413
                0.4446     0.8136829578829
 s    1 1.00
                 0.122                   1
 p    1 1.00
                 0.727                   1

7 0
 s    8 1.00
                 14710  0.00072067370873197
                  2207  0.0055504869689163
                 502.8   0.028254207662589
                 142.6    0.10639582836653
                 46.47    0.28668420124307
                  16.7    0.44843796582416
                 6.356    0.26464118141135
                 1.316   0.015326060993048
 s    8 1.00
                 14710  -0.00032119389049893
                  2207  -0.0025461915683188
                 502.8  -0.012643359507821
                 142.6   -0.05195749170489
                 46.47   -0.14344713812646
                  16.7   -0.33243762329603
                 6.356   -0.21865906750347
                 1.316     1.0955904138622
 s    1 1.00
                0.3897                   1
 p    3 1.00
                 22.67   0.064834021493887
                 4.977    0.34053535983101
                 1.347    0.73464640679382
 p    1 1.00
                0.3471                   1
 d    1 1.00
                  1.64                   1

8 0
 s    3 1.00
                 13.01   0.033498726389998
                 1.962    0.23480080117413
                0.4446     0.8136829578829
 s    1 1.00
                 0.122                   1
 p    1 1.00
                 0.727                   1

[5d]
[7f]
[9g]

[MO]
 Sym= A
 Ene=               0
 Spin= Alpha
 Occup=    1.00000
   1    -0.00011444349982816
   2    -0.00067794494481683
   3    0.0023576459497453
   4    -0.0011314309805129
   5    -8.4936556005579e-05
   6    9.0846020155018e-05
   7    0.00094962617339525
   8    -0.00013368673215562
   9    -0.00022552091247632
  10    0.00020479445998415
  11    -3.3894169347063e-05
  12    -1.5727894137248e-05
  13    -0.00030554063665374
  14    -9.0768503810051e-06
  15       1.0022296270827
  16    -0.0008648556776347
  17    -0.011688501443302
  18    -0.00056008133366455
  19    -0.00013569839589907
  20    0.0024187999365753
  21    0.00082766377456424
  22    -3.695792566584e-06
  23    0.0013107571294505
  24    0.00010696922114719
  25    2.9416860148131e-06
  26    2.1877422497895e-05
  27    -0.00011477325654389
  28    -2.9148432940026e-05
  29    0.00015288925720264
  30    4.5453862004023e-05
  31    -0.00029155174249813
  32    0.00036615787240837
  33    9.807421265418e-06
  34    0.00092055396886214
  35    0.00048145910164813
  36    9.1989455782137e-07
  37    0.0014456648354915
  38    -0.00030985024475388
  39    -0.00016211337274391
  40    -9.2767912687306e-07
  41    -2.5509821063545e-05
  42    9.9737524237801e-07
  43    -0.0031113509230815
  44    0.00079500446018809
  45    0.00011969223809637
  46    -0.00054429560638582
  47    -0.00035235005796832
  48    -0.0030611990048074
  49    0.00085868157834842
  50    8.0956134168696e-05
  51    0.00049576772053699
  52    -0.00032719152342382
  53    8.1925453312991e-05
  54    0.00015376964360731
  55    2.3046266504423e-05
  56    2.9899482520622e-05
  57    2.2760575767948e-05
  58    -1.7371960157927e-05
  59    6.641007372195e-05
  60    0.00010512040709111
  61    0.00028195605604144
  62    -2.6281269923292e-05
  63    5.0029409408165e-05
  64    0.00038563386956185
  65    -2.1699069764157e-05
  66    2.5363715734944e-05
  67    -6.8375754982694e-06
  68    -4.2440831526337e-06
  69    -9.8613262818699e-06
  70    1.5338963881597e-05
  71    2.2294326535134e-06
  72    -5.2117051583455e-05
  73    0.00037434746191079
  74    8.0921679565033e-05
  75    -6.6656856050945e-06
  76    -1.0831257179243e-05
 Sym= A
 Ene=               1
 Spin= Alpha
 Occup=    1.00000
   1       1.0022294806247
   2    -0.0008138975970936
   3    -0.011658908711542
   4    0.0005306182906406
   5    0.0014307200790508
   6    -0.001913304519117
   7    -0.00083908304511991
   8    0.00083131801167696
   9    -0.00099520062509068
  10    6.3419412973115e-05
  11    1.9921125064563e-05
  12    -3.6139947053775e-05
  13    -0.00014137622169615
  14    2.1021771109357e-05
  15    -0.0001151652543158
  16    -0.00067673874409175
  17    0.0023555065329863
  18    0.0011368479195031
  19    -1.2134129639914e-05
  20    -0.0001259798192265
  21    -0.00094644805658759
  22    -0.00024853181508145
  23    8.5047733556023e-05
  24    0.00019950466298127
  25    -2.1262416352234e-05
  26    -2.1132028126474e-05
  27    -0.00030691401244113
  28     2.92578043888e-05
  29    -1.7445878080856e-05
  30    6.5183886350331e-05
  31    0.00010365988194885
  32    -0.00028052502062786
  33    1.2399742737387e-05
  34    -5.4173390301047e-05
  35    -0.00038458744833399
  36    2.7543633101817e-07
  37    -3.2924103423049e-05
  38    3.7528200565004e-07
  39    -4.8018240618947e-06
  40    6.5401707286044e-08
  41    1.9495880396755e-05
  42    1.0358128676623e-06
  43    8.9131327815328e-05
  44    0.00015701663536017
  45    -2.3110921658472e-05
  46    3.8033655464119e-05
  47    2.0817248699061e-06
  48    -5.0991118405855e-05
  49    0.00037739257635222
  50    -8.0690947603096e-05
  51    -1.229827810451e-05
  52    3.9463451310917e-06
  53    -0.0030655556626183
  54    0.00080504158235767
  55    -0.00011858653868443
  56    -0.00063905096081546
  57    -7.8137320055326e-05
  58    0.00015246389251474
  59    4.2681214640262e-05
  60    -0.00029544009534364
  61    -0.00036505227809786
  62    0.00060085924029217
  63    -0.00070094948349127
  64    -0.00047883813724256
  65    0.0009320934219032
  66    -0.0011096384472029
  67    -0.00010751307490595
  68    -0.00012494876801329
  69    0.00027640538753668
  70    9.0687896162102e-05
  71    0.00010355018684166
  72    -0.0030126616824897
  73    0.00087006295800518
  74    -7.9841564617355e-05
  75    0.00016692050357913
  76    0.00056510197427327
 Sym= A
 Ene=               2
 Spin= Alpha
 Occup=    1.00000
   1    -5.7138332831661e-05
   2    2.4642888110128e-05
   3    0.0032845644327887
   4    -0.00022012493948164
   5    0.00032059779735871
   6    -0.00038419678602841
   7    0.00015221437130961
   8    0.00086526745533063
   9    -0.00095547983097324
  10    -6.7450908406858e-06
  11    -2.4691877169932e-06
  12    6.5523291822628e-06
  13    -9.0964538346051e-07
  14    1.7798879445343e-05
  15     4.43362517497e-05
  16    5.4678482854193e-05
  17    -0.0011652032296505
  18    0.00011637739846481
  19    4.8593833900934e-05
  20    -1.737062379626e-05
  21    0.00062672603788053
  22    -0.00029394798847971
  23    0.0001342241324894
  24    2.4340318107383e-05
  25    -1.1364470704439e-05
  26    -8.7915514800356e-05
  27    -5.6581630714569e-05
  28    3.1698130286326e-05
  29    -2.0624072635742e-05
  30    -3.2957486814383e-05
  31    0.00013202181430744
  32    7.9703568852973e-06
  33    -5.5886661817623e-06
  34    -1.0864087283122e-05
  35    -0.00012204283743566
  36    3.6176969111414e-05
  37    -2.6979031314511e-05
  38    1.3475677782741e-06
  39    9.1733823210054e-07
  40    -1.4205001278359e-05
  41    -4.5469343620972e-07
  42    -1.4815129305041e-06
  43    8.5584836847758e-05
  44    -0.00013017384058813
  45    -3.3340934610474e-06
  46    2.6948935607432e-05
  47    -1.3720265183407e-05
  48    3.7944208396699e-05
  49    3.4811184444927e-05
  50    3.910935422361e-05
  51    1.4213119594146e-05
  52    9.4790785626396e-06
  53    -0.00026980227588558
  54    -0.00015362504661736
  55    -6.1836636350831e-06
  56    -0.00012395923441775
  57    0.00010948029859305
  58       1.0009718089508
  59    -0.0037171785809535
  60    -0.010375274191256
  61    0.0010274564703138
  62    -0.0015949277171691
  63    0.0020103659963242
  64    5.6829990544504e-05
  65    0.00015251008193288
  66    -9.9823272484999e-05
  67    -5.5461334556424e-05
  68    -6.4534043925245e-05
  69    0.00013922601958905
  70    5.309198453114e-05
  71    5.6437688946839e-05
  72    -0.00027154979804342
  73    -0.00022081633185476
  74     -7.9423965308e-06
  75    -8.9755284733627e-05
  76    0.00014099477400722
 Sym= A
 Ene=               3
 Spin= Alpha
 Occup=    1.00000
   1    4.4305841852295e-05
   2    5.5700446868087e-05
   3    -0.0011644166435794
   4    -0.00011726222306336
   5    2.6380921104829e-05
   6    4.5844115244824e-05
   7    -0.00062703104247332
   8    -0.00013877896791195
   9    -0.00029130248709268
  10    0.00010450258077627
  11    -2.9194132180725e-05
  12    2.2451948630566e-05
  13    -1.0287610875683e-05
  14    -1.6997324780306e-05
  15    -5.7163836487653e-05
  16    2.6370577652687e-05
  17    0.0032855394310103
  18    0.00022164049199961
  19    -1.6280355837393e-06
  20    0.00049853981591041
  21    -0.00015140363544945
  22    4.8632801086163e-05
  23    0.0012874764132449
  24    -8.0314869948298e-06
  25    -1.3353979254169e-05
  26    5.1235859606001e-06
  27    -1.5774624280197e-06
  28    -1.2076990327381e-05
  29       1.0009718102205
  30    -0.003716712116368
  31    -0.010374741133433
  32    -0.0010243283442932
  33    7.1166371756017e-05
  34    -0.0025649752056192
  35    -5.4715777357317e-05
  36    5.3183593764575e-05
  37    0.00017472085579775
  38    -0.0001587944697905
  39    -8.5790430467662e-05
  40    -3.0262109310649e-06
  41    -6.6127950362356e-06
  42    -1.7581911809029e-06
  43    -0.00026754175034289
  44    -0.00015293460505567
  45    6.1247905674021e-06
  46    -2.4390367519355e-05
  47    -0.00016349598439479
  48    -0.00026985652697886
  49    -0.00022051866368694
  50    7.9073084016653e-06
  51    2.168203196424e-05
  52    -0.00016566853055847
  53    8.5863838661692e-05
  54    -0.0001302691884566
  55    3.326778827166e-06
  56    1.1883524826608e-05
  57    2.7887738551935e-05
  58    -2.0628495394767e-05
  59    -3.3074939764354e-05
  60    0.00013180941105219
  61    -8.0111386655574e-06
  62    -1.1194106524863e-05
  63    4.5210845391677e-06
  64    0.00012205538194211
  65    1.0406946335942e-05
  66    4.3703841990449e-05
  67    1.2810451837585e-05
  68    1.6498845602929e-06
  69    1.533554956473e-06
  70    6.1525267951874e-06
  71    5.5356070842108e-07
  72    3.9948855269759e-05
  73    3.5528214601029e-05
  74    -3.9081407254058e-05
  75     1.69165686292e-05
  76    1.7294806910208e-06
 Sym= A
 Ene=               4
 Spin= Alpha
 Occup=    1.00000
   1    0.00067000293329986
   2     0.014002296908189
   3     0.039791775431501
   4     0.018295175507429
   5    0.00042982620278984
   6    0.0013159298995142
   7     0.020734292192048
   8    -0.00068184664798768
   9    -0.019058674038572
  10    -0.0012756195272605
  11    0.0005369176676157
  12    0.0010706341160615
  13    0.00031725243824321
  14    -0.0010477827458405
  15    0.0015626413295123
  16     0.002438921732298
  17    -0.014100978749578
  18    0.0056333475816108
  19    0.0069678655076475
  20    -9.7632890259436e-05
  21     0.021885631375765
  22     0.028579463106852
  23    0.0065688556189852
  24    -0.0082461764914087
  25     0.013450168148672
  26     0.030618281430791
  27     0.006328638159448
  28    0.0073181082386582
  29    0.00085769612310997
  30    0.0022943568699156
  31    -0.0043018484535094
  32      0.31074474275175
  33      0.57987503111181
  34     -0.10231100267058
  35      0.22019497617779
  36        0.410762943968
  37    -0.071141373858124
  38    0.0034424473541143
  39    -0.0050702688518499
  40    -0.010394591655917
  41    -0.0018570900811941
  42    -0.0041195851565259
  43     0.027185524312742
  44     0.032803984561204
  45    -0.0010663498581875
  46    -0.00089882461746228
  47    0.00070511742438837
  48    -0.048209058515517
  49    -0.054887900039914
  50    -0.00062849286774467
  51    -0.0008654551077623
  52    -0.0018547704201033
  53    -0.0002736946668475
  54     -0.01061236204751
  55    0.0018633996612862
  56    -0.00040788932795076
  57    0.0010674227346734
  58    0.0013548847994107
  59    0.0014435158095064
  60    -0.011645628358122
  61    -0.0011516006655878
  62    0.0031300156456574
  63    -0.0032906535261471
  64    -0.004740764578201
  65    0.0058593261192434
  66    -0.003933212847324
  67    5.5883048248386e-05
  68    0.00013915075976563
  69    0.00013121747397979
  70    3.6487396388465e-05
  71    -0.00021883809139232
  72    0.0076280636917498
  73    0.0048046560537622
  74    -0.00056735426360117
  75    0.00049332496599491
  76    -0.0014213081137847
 Sym= A
 Ene=               5
 Spin= Alpha
 Occup=    1.00000
   1    0.00041821505978893
   2      0.02543382831228
   3     0.078904086570181
   4     0.031309780018474
   5    0.0068382838372976
   6     0.007891670345864
   7     0.015228270736265
   8     0.017296142908273
   9    -0.00082745089471773
  10    -0.0011344084293248
  11    0.00057935274675407
  12    0.00026873504332734
  13    -4.3557823091043e-05
  14    0.00082052453677074
  15     0.001662071123846
  16    0.0037882761577501
  17    0.00096357440601865
  18     0.008694931241567
  19    -0.0039877482504561
  20    -0.0010518059087622
  21      0.03067072308581
  22    -0.020299514566278
  23    0.0086063607591179
  24     -0.01522962231767
  25     0.024349892527411
  26    -0.016703028921463
  27     0.011581072719417
  28    -0.0040775349783113
  29    0.0013835951776198
  30    -0.014181336606908
  31    -0.028779161109476
  32       0.5495640272393
  33     -0.32804955504158
  34     -0.18193189683402
  35      0.38963334274346
  36     -0.23115445522806
  37     -0.12574620990172
  38    0.0058262065202305
  39    -0.0089323161334574
  40    0.0059080275387936
  41    -0.0034876904225315
  42    0.0021300971181017
  43    -0.039854390152483
  44    -0.044837161803272
  45    -0.0013709332957087
  46    0.00077035857027704
  47    -0.0015773143955841
  48    0.0020176462469309
  49    0.0015574283233454
  50    -0.0013170211921155
  51    0.00047522997101331
  52    -0.00015340319640752
  53    -0.0054117213080778
  54    -0.0059623758846848
  55    0.0016440146907456
  56    -0.00095935378671136
  57    0.0012286844713457
  58    0.00057379665471002
  59    -0.002358008343317
  60    -0.015705787094389
  61    -0.0065608789101794
  62    0.0030672724353757
  63    -0.0065721126124343
  64    -0.0041464512598101
  65     0.005563607822441
  66    -0.0086311451520609
  67    -4.9863892138201e-05
  68    0.00049570510472532
  69    0.00015028431743005
  70    0.00048469434301993
  71    -0.00032853138760174
  72    0.0098814049485451
  73    -0.032792710795135
  74    -0.0044141141194168
  75    -0.00041618410471286
  76    -0.0017888031702948
 Sym= A
 Ene=               6
 Spin= Alpha
 Occup=    1.00000
   1    -0.0017093938004917
   2    -0.0050613055578605
   3    -0.0013567527781328
   4    0.0096061201009792
   5    0.0054364877741411
   6    0.0016733911249081
   7     0.031563864091069
   8    0.0099560941675593
   9     0.019283815829771
  10    -0.0033686461128676
  11    -0.021418046022335
  12    -0.010238752866217
  13    -0.022575844429067
  14     0.012824700087237
  15    -0.00041836241626448
  16    -0.025193873849694
  17    -0.079517821233902
  18     0.031960423379166
  19    -0.010591554287644
  20    0.0013270008870601
  21     0.015864648594915
  22    -0.012441777036769
  23    -0.012277148402772
  24    0.00068982972291151
  25    2.3659729939852e-05
  26    -0.00094241926496235
  27    -0.00028748616120047
  28    0.00089306314759765
  29    -0.0006171265890483
  30    0.0022670694281803
  31     0.015945581888149
  32    -0.0065855238680197
  33     0.001876795083122
  34    -0.0070478580846587
  35    -0.0042912843672786
  36    0.0012453476517836
  37    -0.010291690472017
  38    0.00032889065560583
  39    -0.00059694227065644
  40    0.0002292738505206
  41    -0.00032714561210977
  42    6.4175297392075e-05
  43    0.0061771973603674
  44    0.0065514507948067
  45     0.001669542070085
  46    -2.0339142726289e-05
  47    0.0016078589501702
  48    -0.0099035431720455
  49     0.032448608762307
  50    -0.0044335817470741
  51    0.0014419326570128
  52    -0.0011329214724982
  53     0.036706753555757
  54     0.043138199988912
  55    -0.0014749587058843
  56    0.00026567661291729
  57    -0.0017187000754343
  58    -0.0014000867124885
  59     0.014548105666232
  60     0.029358887285033
  61      0.55812212577921
  62      0.35710395262571
  63     0.059099832828483
  64      0.39563586868707
  65      0.24990761809596
  66     0.043459501827953
  67     0.001284380381801
  68    0.0082564499736106
  69    0.0042862365921814
  70    0.0077068847866085
  71    -0.0042940544556425
  72    -0.00085685044779151
  73    0.00012939859094602
  74    -0.0013211618157846
  75    -0.00014660211517405
  76    -0.00040198758847028
 Sym= A
 Ene=               7
 Spin= Alpha
 Occup=    1.00000
   1    0.0015138839164044
   2    0.0029483489617913
   3    -0.013642516761826
   4    -0.0058451622176523
   5    0.0072787926979876
   6    0.0069682523163408
   7    -0.021201337239041
   8     0.027083897116141
   9     0.014777412529067
  10    -0.031505413389162
  11    0.0049145320413131
  12    -0.0016109546706306
  13    -0.0076908442918777
  14    -0.013958683495185
  15    0.00065185289525938
  16     0.013386887961097
  17     0.037560921692556
  18     -0.01717579611107
  19    0.00086808181624365
  20    -0.00069038542037995
  21     -0.02011969953613
  22    -0.013080255044756
  23     0.013752573708967
  24    -0.0015072372109512
  25    0.00097410047311335
  26    0.00073436801663963
  27    0.00018360197696984
  28    0.00038024062197441
  29    0.0013300364534063
  30    0.0014194624155225
  31    -0.011335494520125
  32    0.0010706029522801
  33    0.0003213968744233
  34    0.0044236128402947
  35    0.0046947359324205
  36    0.0019730571199292
  37    0.0065465773092649
  38    -9.3772206015186e-05
  39    0.00022698694409482
  40    -8.0450966681773e-05
  41    -6.0898432314518e-05
  42    7.7302155352716e-05
  43    0.00020410281122873
  44    -0.010137237955191
  45    -0.0018179149672273
  46    0.00037393372877086
  47    -0.0010302459008199
  48    0.0074022287848574
  49    0.0056122332299651
  50    0.00045241389829519
  51    -0.0005107995304414
  52    0.0013788677519191
  53     0.026789013298363
  54     0.033351597793844
  55    0.00095384986837173
  56    -0.0002782420172394
  57    -0.0011263290658425
  58    0.00081619293886702
  59     0.002435912489134
  60    -0.0037755986273192
  61      -0.2952087618378
  62      0.38857655949782
  63      0.45266975748017
  64     -0.20914274326842
  65      0.27589594199783
  66      0.31954628898074
  67     0.010917456401391
  68    -0.0010046633678787
  69    -9.1017977620959e-05
  70    0.0026462787116459
  71    0.0063088818796814
  72    -0.045411899780551
  73    -0.053951011626348
  74    0.00068748306265316
  75     -0.00191051699919
  76    0.0006804523878212
 Sym= A
 Ene=               8
 Spin= Alpha
 Occup=    1.00000
   1    0.0019100647971518
   2      0.15251202241605
   3    -0.011543209439802
   4      -0.0959842043884
   5      0.18275103854699
   6     -0.21976629979445
   7    -0.026783712949868
   8     0.025895007761179
   9    -0.036787884963954
  10     0.017999124976049
  11      0.02160334361775
  12    -0.044937459413803
  13    -0.013023183390226
  14    -0.019126113716937
  15    -0.00064513533857196
  16    -0.018229347346998
  17      0.01544346467614
  18     0.021620433742897
  19    -0.0044231925260096
  20    -0.0073292494605585
  21    0.0068574846500266
  22     0.011644638776948
  23    -0.0068691025103709
  24    -0.00058562150602846
  25    0.0081741216654067
  26    0.0032376950501099
  27    0.0033560165338752
  28    -0.007591395643844
  29    0.00047528467931727
  30     0.005984913685966
  31    0.0090178471564657
  32    -0.011138248905358
  33    0.00024286477389792
  34    -0.0084766161411466
  35    -0.011437801193345
  36    -0.0019023386560237
  37    -0.0043672331950487
  38    0.00012321747074854
  39    -0.00032715154492238
  40    0.00030005996078137
  41    -0.00030603888897463
  42    6.5399916668217e-05
  43     0.005292768089071
  44     0.016588896903242
  45    0.0011436862366955
  46    -0.0011845830715495
  47    9.9923951889158e-06
  48    -0.012077624681243
  49    -0.029561879467687
  50    0.0010067455952553
  51    -0.00048078353865366
  52    -0.00090474856489264
  53    -0.010476593850479
  54    -0.023714305571051
  55    -0.0014470848608382
  56    0.0084490582963027
  57    -0.0063627085984553
  58    -0.004322999234391
  59      0.15180304334014
  60      0.12256858793091
  61      0.15460545898363
  62     -0.31095575371768
  63      0.36701656333409
  64      0.10237508672884
  65     -0.20488335035348
  66      0.24176332149798
  67    0.0060572184858509
  68    0.0083215484630015
  69    -0.016273186975891
  70    -0.005064180971655
  71    -0.0071507470366338
  72    -0.0093916744601975
  73    -0.015248493931585
  74    -0.0010462661067799
  75    0.0050467114143653
  76    -0.0089878858407422
 Sym= A
 Ene=               9
 Spin= Alpha
 Occup=    1.00000
   1    0.0006124692211554
   2     0.017540513849996
   3    -0.015983970913525
   4     0.021711864301264
   5    0.0071353348507296
   6    -0.0041304099200914
   7    0.0068621652532049
   8    -0.0048461723013976
   9    -0.013215560899821
  10    0.0040828395894007
  11    -0.011156856113996
  12    0.0016859493372068
  13    -0.0012498944571857
  14    -0.00053653878585782
  15    -0.0019137450562789
  16     -0.15019798212417
  17     0.012938346861885
  18    -0.094579603692195
  19    0.0010674982855258
  20     -0.28752825516685
  21    -0.026258162714137
  22    0.0037109547693045
  23       -0.045475072289
  24    -0.049907983945145
  25    -0.028826610485063
  26    0.0011349258832547
  27    -0.0054803363056582
  28    -0.00072314920461697
  29    0.0043081087564495
  30     -0.15193087398147
  31     -0.12272364527707
  32      0.15507213316236
  33    0.0022624383087132
  34      0.48107020262002
  35      0.10260546348879
  36    0.0015463552221064
  37      0.31700691585874
  38    -0.017955990676966
  39    -0.010990250200246
  40    -0.00015050029220665
  41    -0.0018423936331961
  42    -0.00012673704731782
  43     0.012748512624847
  44     0.024139829070611
  45    -0.0015085305500475
  46    -0.0021576721345779
  47    -0.010235104729929
  48      0.01147651887629
  49     0.015741828833506
  50    -0.0010956356001834
  51    0.0017035056354586
  52    -0.010066705639035
  53    -0.0046521441091886
  54    -0.016224883214638
  55    0.0011694900640595
  56     0.000917545400408
  57    0.00074423179737602
  58    -0.00047224042224619
  59    -0.0059807579596755
  60    -0.0090160122271294
  61    -0.011202744120164
  62    0.0053217273034949
  63    -0.0065349934011104
  64     -0.01150834457955
  65    0.0043644226054337
  66    -0.0019501135454088
  67    7.6984823173363e-05
  68    0.00028730423253681
  69    6.3919365245676e-06
  70    0.00042851308634559
  71    -0.0001625811386467
  72     0.010497753765571
  73      0.02921208332009
  74    0.00093762439915047
  75    0.00098159347329247
  76    -0.00027785701196419
 Sym= A
 Ene=              10
 Spin= Alpha
 Occup=    1.00000
   1    -0.0067867053059826
   2    -0.036236314819657
   3     -0.02648123148691
   4     0.017101456052604
   5     -0.03278588247478
   6     0.039359424169781
   7    -0.0018333054991593
   8    0.00096780883913989
   9    0.0014323307818666
  10    0.00063254586146432
  11    0.0018391926669312
  12    -0.0013896446125253
  13    0.00010474431884568
  14    -0.00098794546872217
  15    -0.00016842617795583
  16    0.0012563354942394
  17    0.0037798231043185
  18    -0.0034898984121717
  19    -0.0017721561883755
  20    0.0037616939163414
  21    -0.013008504555072
  22    -0.012191777195395
  23    0.0052576057570765
  24    -0.00042252809533644
  25    -0.0022820130459103
  26    0.0002427218953706
  27    0.00014557611529804
  28    0.0018134452805001
  29    -0.00018693601210602
  30    -0.0016577920854377
  31    -0.0027261708061014
  32     0.002858434023292
  33    0.00038880994316546
  34    0.0018373718424031
  35    0.0031163885557491
  36    0.0013105747144504
  37    0.00079221526119762
  38    -9.8607717059922e-06
  39    0.00014552507150377
  40    -1.5008648925743e-05
  41    0.00013026599105757
  42    3.9335647932396e-05
  43    -0.0020309305213445
  44    -0.0067320525166404
  45    0.00030203614537567
  46    8.829078010374e-05
  47    -7.4300048847341e-05
  48    0.0019531914587667
  49     0.020512498505286
  50    -0.00082121927316929
  51    -0.00052039818485115
  52    0.00027637421169569
  53    -0.00054042471028891
  54     0.012416866894595
  55    0.0012686034052111
  56    -0.00090909984467315
  57    0.0023427280760816
  58     0.005772947736802
  59      0.46868563935648
  60      0.54943163672625
  61    -0.093378558297341
  62      0.13535308021863
  63     -0.17850696921226
  64    -0.065086706795322
  65     0.095286083446786
  66     -0.12643571771918
  67    -0.0015002395241867
  68    -0.0022116345090686
  69    0.0036447052467867
  70    0.0010111886984233
  71    0.0017601309506334
  72    0.00053413729818247
  73     0.011062931474623
  74    0.0012711370725978
  75    -0.0021814770056867
  76    0.0011510321626925
 Sym= A
 Ene=              11
 Spin= Alpha
 Occup=    1.00000
   1    -0.00016909833615945
   2      0.00106106618827
   3    0.0036131700274767
   4    0.0035819790266832
   5    0.00091831261770693
   6    -0.0043154594351672
   7     0.013036664612504