[Molden Format]
made by pyscf v[2.0.1]
[Atoms] (AU)
C   1   6     0.00000000000000     0.00000000000000     0.00000000000000
C   2   6     2.85207482267819     0.00000000000000     0.00000000000000
F   3   9     3.65415199667903     0.00000000000000     2.45977207315200
H   4   1     3.58561868306314    -1.67891019462705    -0.93677358840720
H   5   1     3.58561868306314     1.67891019462705    -0.93677358840720
H   6   1    -0.73354386038494    -1.65072482246847    -0.98559208501610
F   7   9    -0.80207717400084     2.13022510286915    -1.22988603657600
H   8   1    -0.73354386038494     0.02818537215858     1.92236567342330
[GTO]
1 0
 s    8 1.00
                  6665  0.00069158396281299
                  1000  0.0053257961529341
                   228   0.027060721042034
                 64.71    0.10165684614077
                 21.06     0.2745748236174
                 7.495    0.44829431892377
                 2.797    0.28490261071525
                0.5215   0.015194859206082
 s    8 1.00
                  6665  -0.00029326965268655
                  1000  -0.0023180354739745
                   228  -0.011499786038565
                 64.71  -0.046826727009787
                 21.06   -0.12846616875047
                 7.495   -0.30126627246289
                 2.797   -0.25563070233011
                0.5215      1.093793361012
 s    1 1.00
                0.1596                   1
 p    3 1.00
                 9.439   0.056979251590039
                 2.002    0.31320721150073
                0.5456    0.76037674173753
 p    1 1.00
                0.1517                   1
 d    1 1.00
                  0.55                   1

2 0
 s    8 1.00
                  6665  0.00069158396281299
                  1000  0.0053257961529341
                   228   0.027060721042034
                 64.71    0.10165684614077
                 21.06     0.2745748236174
                 7.495    0.44829431892377
                 2.797    0.28490261071525
                0.5215   0.015194859206082
 s    8 1.00
                  6665  -0.00029326965268655
                  1000  -0.0023180354739745
                   228  -0.011499786038565
                 64.71  -0.046826727009787
                 21.06   -0.12846616875047
                 7.495   -0.30126627246289
                 2.797   -0.25563070233011
                0.5215      1.093793361012
 s    1 1.00
                0.1596                   1
 p    3 1.00
                 9.439   0.056979251590039
                 2.002    0.31320721150073
                0.5456    0.76037674173753
 p    1 1.00
                0.1517                   1
 d    1 1.00
                  0.55                   1

3 0
 s    8 1.00
                 14710  0.00072067370873197
                  2207  0.0055504869689163
                 502.8   0.028254207662589
                 142.6    0.10639582836653
                 46.47    0.28668420124307
                  16.7    0.44843796582416
                 6.356    0.26464118141135
                 1.316   0.015326060993048
 s    8 1.00
                 14710  -0.00032119389049893
                  2207  -0.0025461915683188
                 502.8  -0.012643359507821
                 142.6   -0.05195749170489
                 46.47   -0.14344713812646
                  16.7   -0.33243762329603
                 6.356   -0.21865906750347
                 1.316     1.0955904138622
 s    1 1.00
                0.3897                   1
 p    3 1.00
                 22.67   0.064834021493887
                 4.977    0.34053535983101
                 1.347    0.73464640679382
 p    1 1.00
                0.3471                   1
 d    1 1.00
                  1.64                   1

4 0
 s    3 1.00
                 13.01   0.033498726389998
                 1.962    0.23480080117413
                0.4446     0.8136829578829
 s    1 1.00
                 0.122                   1
 p    1 1.00
                 0.727                   1

5 0
 s    3 1.00
                 13.01   0.033498726389998
                 1.962    0.23480080117413
                0.4446     0.8136829578829
 s    1 1.00
                 0.122                   1
 p    1 1.00
                 0.727                   1

6 0
 s    3 1.00
                 13.01   0.033498726389998
                 1.962    0.23480080117413
                0.4446     0.8136829578829
 s    1 1.00
                 0.122                   1
 p    1 1.00
                 0.727                   1

7 0
 s    8 1.00
                 14710  0.00072067370873197
                  2207  0.0055504869689163
                 502.8   0.028254207662589
                 142.6    0.10639582836653
                 46.47    0.28668420124307
                  16.7    0.44843796582416
                 6.356    0.26464118141135
                 1.316   0.015326060993048
 s    8 1.00
                 14710  -0.00032119389049893
                  2207  -0.0025461915683188
                 502.8  -0.012643359507821
                 142.6   -0.05195749170489
                 46.47   -0.14344713812646
                  16.7   -0.33243762329603
                 6.356   -0.21865906750347
                 1.316     1.0955904138622
 s    1 1.00
                0.3897                   1
 p    3 1.00
                 22.67   0.064834021493887
                 4.977    0.34053535983101
                 1.347    0.73464640679382
 p    1 1.00
                0.3471                   1
 d    1 1.00
                  1.64                   1

8 0
 s    3 1.00
                 13.01   0.033498726389998
                 1.962    0.23480080117413
                0.4446     0.8136829578829
 s    1 1.00
                 0.122                   1
 p    1 1.00
                 0.727                   1

[5d]
[7f]
[9g]

[MO]
 Sym= A
 Ene=               0
 Spin= Alpha
 Occup=    1.00000
   1    -0.00012164553199722
   2    -0.00068534621593933
   3    0.0024360886673891
   4    -0.0011417840645436
   5    -0.00010028150057835
   6    4.8681525346828e-05
   7    0.00099990915342032
   8    -4.3449048654836e-05
   9    -0.00032826560223583
  10    0.00020062704326597
  11    -3.9382046293586e-05
  12    -8.3051183903395e-06
  13    -0.00030991805666793
  14    -5.4628909143638e-06
  15       1.0022396879897
  16    -0.00084563974253552
  17    -0.011785214475012
  18    -0.00054654528952546
  19    -0.00015513240294841
  20    0.0023980295925713
  21    0.00085504792588956
  22    -1.1855639332872e-05
  23    0.0013503708641485
  24    0.00010108952253011
  25    -3.154171299291e-06
  26    2.3033999319843e-05
  27    -0.0001225073652921
  28    -2.442312003871e-05
  29    0.00015319321632432
  30    4.6560522949412e-05
  31    -0.0002913734247743
  32    0.00036231198864963
  33    7.8488570944306e-06
  34    0.00092284997686728
  35    0.00047787355005801
  36    6.6322025329375e-06
  37    0.0014376646858191
  38    -0.00030787029592551
  39    -0.00016127835652381
  40    -1.1556415964041e-06
  41    -2.5744278731132e-05
  42    6.5413879328492e-07
  43    -0.003102073052847
  44    0.00080542245300645
  45    0.0001206005770939
  46    -0.00054749586728446
  47    -0.00035462639278537
  48    -0.0030679343929427
  49    0.00086576777534886
  50    8.4083234291718e-05
  51    0.00050151980644919
  52    -0.00032747122625982
  53    0.00011281620781363
  54    0.00017984009089578
  55    1.642566947891e-05
  56    2.2332558373242e-05
  57    3.8251630706081e-05
  58    -3.449607698779e-06
  59    8.4310612034476e-05
  60    1.5915440491436e-05
  61    0.00028025311473377
  62    -3.5004037596564e-05
  63    1.4883635024504e-05
  64    0.00033540386671849
  65    -4.2117024098587e-06
  66    1.8909650760475e-05
  67    -1.23162599967e-05
  68    -1.5302423472997e-07
  69    -7.3828074546876e-06
  70    1.094761578181e-05
  71    4.2060154933767e-06
  72    -6.1740365752403e-05
  73    0.00039715112172481
  74    8.059797030378e-05
  75    -1.1296228521034e-05
  76    -9.1094377945899e-06
 Sym= A
 Ene=               1
 Spin= Alpha
 Occup=    1.00000
   1       1.0022394873871
   2    -0.0007965010931606
   3    -0.011756433046664
   4    0.00051779285694202
   5    0.0019728453521559
   6    -0.0013136232253181
   7    -0.00086604187297744
   8    0.0011524950261889
   9    -0.00067709962562686
  10    5.1390083951541e-05
  11    1.8767179651319e-05
  12    -9.3538093588282e-06
  13    -0.00015262291538371
  14    1.5684489186796e-05
  15    -0.00012234767358435
  16    -0.00068335446367363
  17     0.002434133707398
  18    0.0011477455316774
  19    -1.5626084201047e-05
  20    -0.00011387243991423
  21    -0.00099645123836274
  22    -0.00030763288961701
  23    0.00012473221664587
  24    0.00018147745972125
  25    -1.5865815853287e-05
  26    -2.0047709832982e-05
  27    -0.00031939735302248
  28    3.7534115504041e-05
  29    -3.5475331907516e-06
  30    8.3104988405182e-05
  31    1.4618646344193e-05
  32    -0.00027901869304194
  33    -3.970332221568e-06
  34    -3.6800263311869e-05
  35    -0.00033471096921712
  36    1.5156829507886e-05
  37    -1.2657616367476e-05
  38    1.974501873361e-08
  39    -3.8421428829619e-06
  40    9.0470334198874e-07
  41    1.806421683711e-05
  42    -1.9320873597952e-06
  43    0.00012215619238543
  44    0.00018340884161866
  45    -1.6554350381975e-05
  46    4.496378112541e-05
  47    5.9871902513559e-07
  48    -6.1135266519596e-05
  49    0.00040011095691716
  50    -8.0356883920907e-05
  51    -1.3760714489103e-05
  52    -5.3023523699003e-06
  53    -0.0030592669910267
  54     0.000814710077697
  55    -0.0001195869937133
  56    -0.00057754037439204
  57    -0.00029373153876744
  58    0.00015278125808339
  59    4.3940839233621e-05
  60    -0.00029494783309235
  61    -0.00036106233612491
  62    0.00080523172797705
  63    -0.000456003313442
  64    -0.00047516702031454
  65    0.0012511273276458
  66    -0.00071504425509521
  67    5.6132877805312e-05
  68    -8.1277713626409e-05
  69    0.00024094863286908
  70    0.00018381067310528
  71    0.0001394906342639
  72    -0.0030193126366569
  73    0.0008773013762573
  74    -8.2972862412731e-05
  75    -3.3794578406795e-05
  76    0.00059327488697987
 Sym= A
 Ene=               2
 Spin= Alpha
 Occup=    1.00000
   1    5.0203212754661e-05
   2    6.6395159267456e-05
   3    -0.0011897524227661
   4    -0.00012821151213802
   5    1.2049700546244e-05
   6    4.8354380041348e-05
   7    -0.00053293407428448
   8    -5.5228446411494e-05
   9    -0.00033003980648982
  10    0.00010822742552626
  11    -3.7864128880078e-05
  12    1.7409889228139e-06
  13    3.9280196009338e-06
  14    -8.513629390578e-06
  15    -5.600028665834e-05
  16    2.2163730149038e-05
  17    0.0032081687146053
  18    0.0002210282176893
  19    -1.6728209113236e-06
  20    0.00048821827181591
  21    -0.00010849349455774
  22    1.6385170483357e-05
  23    0.0012652577897094
  24    -6.7406524879469e-06
  25    -2.3187204325829e-05
  26    3.5467089934387e-07
  27    -1.001891100506e-05
  28    -4.8841388974575e-06
  29       1.0009705689627
  30    -0.0036089317806223
  31    -0.010222679666788
  32    -0.0010801513527114
  33    2.540586147318e-06
  34    -0.0024813838869312
  35    -0.00010825898418541
  36    9.2695628169052e-06
  37    0.00022165072501742
  38    -0.00016088843718541
  39    -8.3362305917525e-05
  40    -3.828247005488e-07
  41    -5.4302691018475e-06
  42    -6.5499648802372e-07
  43    -0.00026869210439508
  44    -0.00018918842204663
  45    8.1744145508464e-06
  46    -2.664527664874e-05
  47    -0.00016342933885466
  48    -0.00026662214139753
  49    -0.00020472516960525
  50    9.0883609513216e-06
  51    2.5619690845949e-05
  52    -0.00016442036063896
  53    8.387688464052e-05
  54    -2.8649633472969e-05
  55    2.0478315161977e-05
  56    -2.2410880875894e-06
  57    4.9238990381888e-05
  58    -7.9061509135723e-06
  59    -8.3786520877615e-06
  60    0.00010139602941869
  61    1.1224016429028e-05
  62    -1.1598000913571e-05
  63    4.6638018205864e-06
  64    5.7152026127992e-05
  65    -1.5450423932229e-05
  66    3.6228364305409e-05
  67    1.0564367308361e-05
  68    1.1237451257395e-07
  69    -1.0865986712671e-05
  70    -3.2826550732513e-07
  71    -2.1761198273828e-06
  72    4.2059278505173e-05
  73    6.470561386311e-05
  74    -3.8853604768187e-05
  75    3.1726584516123e-06
  76    5.4884039833311e-06
 Sym= A
 Ene=               3
 Spin= Alpha
 Occup=    1.00000
   1    -5.6012226331361e-05
   2    1.9976485437684e-05
   3    0.0032067710299202
   4    -0.00021928696472434
   5    0.00042339221939215
   6    -0.00024636167721648
   7    0.00010909391221492
   8    0.0011046096156045
   9    -0.00061881940661583
  10    6.9424972656066e-06
  11    -7.2593292107845e-06
  12    9.4413848581049e-06
  13    -2.0418634878034e-06
  14    2.230176383532e-05
  15    5.0238373743885e-05
  16    6.5564283174864e-05
  17    -0.0011899076990602
  18    0.00012700182382024
  19    4.6682472460975e-05
  20    -1.2908791947912e-05
  21    0.00053229951085973
  22    -0.00031402709583869
  23     0.000117619630415
  24    -1.7327031802391e-05
  25    -1.1495787189647e-05
  26    -8.1937240616093e-05
  27    -6.8564651583803e-05
  28    3.6960908573354e-05
  29    -7.8909382168139e-06
  30    -8.2686402908052e-06
  31    0.00010146409537144
  32    -1.1205144182239e-05
  33    -1.6802486448748e-06
  34    -1.2514061666887e-05
  35    -5.7055312357654e-05
  36    2.3793489799563e-05
  37    -3.1598729176621e-05
  38    7.0261973950925e-06
  39    1.955704067242e-06
  40    -1.3196673851769e-05
  41    -2.3577519563312e-06
  42    9.9428210291168e-07
  43    8.3650170294661e-05
  44    -2.8650178400618e-05
  45    -2.0510689487868e-05
  46    4.1446142222611e-05
  47    -2.6564161095041e-05
  48    3.9985854633606e-05
  49    6.3951950012402e-05
  50    3.8903904021715e-05
  51    6.476712636183e-06
  52    -5.5675098109635e-08
  53    -0.00027101223947252
  54    -0.00018976214488598
  55    -8.2056941897116e-06
  56    -0.00015501931087868
  57    5.8496352606832e-05
  58       1.0009706248717
  59    -0.0036055955156771
  60    -0.010218837924278
  61    0.0010784363654632
  62    -0.0021471993478946
  63    0.0012435225464492
  64    0.00010693825270407
  65    0.00019690204422128
  66    -0.00010233527480182
  67    2.3939930668056e-05
  68    -4.1113961253443e-05
  69    0.00012283618828953
  70    0.00010129059435025
  71    7.2532228882258e-05
  72    -0.0002690081049939
  73    -0.00020540390277338
  74    -9.119102673376e-06
  75    -0.00012954063292796
  76    0.00010461572388053
 Sym= A
 Ene=               4
 Spin= Alpha
 Occup=    1.00000
   1    -0.00052724885948994
   2    -0.00063153055671967
   3    0.0069224309623181
   4    0.00093496999476139
   5    -0.0012890377536722
   6    0.00036499580172833
   7      0.01025241929326
   8    0.0039577018502427
   9    0.00091634969436476
  10    -0.00020291991784226
  11    0.00011293710370779
  12    0.00078300914490044
  13    -8.5419388876889e-05
  14    -0.0014455787488044
  15    0.00070564467143023
  16    0.00056407157215734
  17    -0.013525540155297
  18    0.0011445641182504
  19    0.0079756008922919
  20    0.00078477337786042
  21     0.005517150132764
  22     0.031538298756764
  23    -0.0013989541224654
  24    -0.00032410368800852
  25    0.00062667032408006
  26     0.034991073085993
  27    0.00010520924866513
  28    0.0087226283063682
  29    3.2541882337053e-05
  30    0.0014114699606308
  31    0.0025559091209841
  32     0.013862518447562
  33      0.66599630144022
  34    -0.0050380545438572
  35    0.0098021266128546
  36      0.47193060095554
  37    -0.0040042946420294
  38    0.00025437470004396
  39    -0.00022383134239884
  40    -0.011959244419151
  41    3.9523173155484e-05
  42    -0.0045719192107151
  43     0.043374868096402
  44     0.048841944781165
  45    -0.00031444626213257
  46    -0.0010871996306168
  47     0.001488935167033
  48    -0.043491236789534
  49    -0.048119209336129
  50    6.6493254722814e-05
  51    -0.00088348707023255
  52    -0.0013156232567921
  53    0.0015378442654753
  54    0.0057397095679773
  55    0.0015559852934213
  56    0.0002777020676425
  57    0.00057177544535942
  58    0.00097015285851426
  59     0.002539742936597
  60    -0.0027573071638519
  61    0.0020520895579262
  62    0.00028478465142969
  63    -0.0012635368666914
  64    -0.0024604023586303
  65    0.0010824648024926
  66    -0.0015439497256026
  67    0.00014417839010801
  68    -5.9577604954162e-05
  69    9.0182373297449e-05
  70    -0.00017233950792321
  71    9.5186011941446e-05
  72    0.00070235591062045
  73    0.00035865578905212
  74    -0.00028934228736974
  75    0.0010584253615008
  76    -0.00013730189697003
 Sym= A
 Ene=               5
 Spin= Alpha
 Occup=    1.00000
   1    0.00035603086896436
   2     0.028372856997928
   3     0.091044554112092
   4     0.036701371207644
   5    0.0033667792432172
   6     0.011877502523083
   7     0.021084594153072
   8    0.0020566646998939
   9    -0.0021239644702498
  10    -0.0012351468294726
  11    0.00094700681670924
  12    0.00016487360699968
  13    0.00014028543074327
  14    0.00022494108642442
  15    0.0020853366922162
  16    0.0046042136239635
  17    -0.002556685445318
  18     0.010416956067115
  19    -0.00037272309563977
  20    -0.00078152331870453
  21     0.036587685214653
  22    -0.0022715594990058
  23     0.008464650981868
  24    -0.017559178589438
  25      0.02773622696639
  26    -0.00051889512348036
  27     0.013462166002606
  28    -0.00035265297414419
  29    0.0014722740776955
  30    -0.020075498386105
  31     -0.03614621644803
  32       0.6306963598562
  33    -0.014978013247545
  34     -0.20975646726097
  35      0.44708986403721
  36    -0.010035333583822
  37      -0.1455444799894
  38    0.0066923062678181
  39    -0.010265694201334
  40    0.00030906074471876
  41    -0.0038409594159476
  42    -4.576064650655e-05
  43    -0.022522903726269
  44    -0.024585878212329
  45    -0.0016267238491868
  46    0.00018592639089504
  47    -0.00088017484095632
  48    -0.020738614777987
  49    -0.024264054129177
  50    -0.0015317566752643
  51    -7.7233703441433e-05
  52    -0.00085234539806312
  53     -0.01133357636151
  54     -0.01772723036277
  55    0.0025642601058797
  56    -0.0016143581358033
  57    0.00066739912701068
  58    0.00038651195886491
  59    -0.001857914225577
  60    -0.011416604339561
  61    -0.0053519288262142
  62    0.0049583368833228
  63    -0.0046050759470377
  64    -0.004549634854342
  65    0.0085691809593452
  66    -0.0042040187829632
  67    0.0001081099219406
  68    0.00033984975589924
  69    -4.6401794908526e-05
  70    0.00048661220398273
  71    -0.00053142394775871
  72     0.013090804691479
  73    -0.028178811935869
  74    -0.0047022634357311
  75     0.000206903583864
  76    -0.0027479212796224
 Sym= A
 Ene=               6
 Spin= Alpha
 Occup=    1.00000
   1    -0.0020919932831296
   2    -0.0059574321083493
   3    0.0016604784701598
   4     0.011231057912849
   5     0.001973099475137
   6    -0.00072361485800996
   7     0.036920518343167
   8    -0.0058342218925305
   9    0.0058851686139254
  10    0.0061772071175175
  11    -0.014134260394716
  12    -0.0072471075642378
  13    -0.019981300720947
  14     0.023771248368153
  15    -0.00033733467816496
  16    -0.027562135071705
  17    -0.090467611302393
  18     0.036957536772421
  19    -0.012454092277071
  20    0.0025152212391693
  21     0.021181560342116
  22    0.00059635044307685
  23    -0.0030393668054852
  24    5.7465681215721e-05
  25    -0.00028435938444263
  26    -0.00092488434199743
  27    -0.00087997505141192
  28    0.00087020312799414
  29    -0.00039336225941254
  30    0.0018151751249372
  31     0.011370421990595
  32    -0.0053828550248566
  33     0.001546459587654
  34    -0.0065149230162416
  35    -0.0046077877430008
  36    -0.00058617421490088
  37    -0.0094357667010939
  38    0.0003036524433133
  39    -0.00062955011447729
  40    0.00032225411365606
  41    -0.0002565918942977
  42    2.9602780810424e-05
  43     0.012384574742101
  44     0.018018156299446
  45    0.0025313158501199
  46    0.00030064761781149
  47    0.0017644730879771
  48    -0.012853350512725
  49      0.02803282558471
  50    -0.0047093034386642
  51    0.0022235012471641
  52    -0.0015496433985586
  53     0.020893540633927
  54     0.024018306577186
  55    -0.0016648562362183
  56    0.00057349502738432
  57    -0.00069205002743036
  58    -0.001461513831279
  59     0.020373864146961
  60     0.036461215146913
  61       0.6308472004036
  62      0.18747033194319
  63     -0.09363101921006
  64      0.44713246753886
  65      0.12985492560101
  66    -0.065291330743673
  67    -0.0014612366968249
  68    0.0050872321864987
  69    0.0032227040434372
  70    0.0068700824911144
  71    -0.0089358605039276
  72     0.019523299218765
  73     0.024172608219431
  74    -0.0015631135933961
  75    0.00082129049875491
  76    -0.00022552797653008
 Sym= A
 Ene=               7
 Spin= Alpha
 Occup=    1.00000
   1    0.00069740520968197
   2    0.00054027794618427
   3    -0.013447010016948
   4    -0.0011278493712262
   5    0.0063576893281471
   6    0.0094269106987848
   7    -0.005422670693614
   8     0.015145054827908
   9     0.029135187418829
  10    -0.026140614669609
  11    -0.0073850606285993
  12     0.017578670039946
  13    -0.014878600316436
  14    -0.0048952070996739
  15    -0.00052191886938887
  16    -0.00045801914690606
  17    0.0067460933375481
  18    -0.00061180766857198
  19    -0.00058219762727835
  20    -0.0013136120548921
  21    -0.010030494770176
  22    0.0026765118423126
  23    0.0029006631528986
  24    -0.00052343192063833
  25    0.0011589699591579
  26    0.00058387374267478
  27    -0.00026841377871519
  28    0.00053520375915292
  29    0.0009604975967786
  30    0.0024321157829174
  31    -0.0029222304391154
  32    -0.0019424114746871
  33    -0.00093346703994062
  34    0.00098546162712086
  35     0.002546214212297
  36    -0.00078183592200663
  37    0.0017695767778435
  38    2.9138850455397e-05
  39    -0.00011659062023986
  40    1.6454506072092e-05
  41    -0.00023617405515507
  42    3.4362387904507e-06
  43    0.0021129272398724
  44    0.0060953452957295
  45    -0.0015542773949232
  46    0.00065016950368577
  47    -2.7195283331411e-05
  48    0.00068643741510932
  49    0.00039359559699398
  50    0.00027426639332311
  51    0.00040384530159095
  52    0.00098083092346731
  53     0.040964656839857
  54     0.047931005922038
  55    0.0002074578565029
  56    0.00062298139583739
  57    -0.0017204398026301
  58    2.631976763015e-05
  59    0.0015639328360232
  60    0.0027849015861073
  61    -0.011641917050429
  62      0.32913810038499
  63       0.5787715558133
  64    -0.0082179867229725
  65      0.23274216272493
  66      0.41015698425908
  67    0.0089425007999701
  68    0.0038745785338924
  69    -0.0062008192114206
  70    0.0050815703016856
  71    0.0024536500485577
  72    -0.040980760471296
  73    -0.047151993498967
  74    1.9538131852682e-05
  75    -0.0015469105578476
  76    -0.00023899611689528
 Sym= A
 Ene=               8
 Spin= Alpha
 Occup=    1.00000
   1    -0.0019352871357741
   2     -0.15262721541434
   3     0.009478140015657
   4     0.096149930920502
   5     -0.24723543614883
   6      0.14371643859521
   7     0.026069072707977
   8    -0.038818650410397
   9     0.024715560425563
  10    0.0091321483718946
  11    -0.014300709469882
  12     0.039834543876513
  13     0.028484320894053
  14     0.025781647899301
  15    0.00081086316992709
  16     0.017442529823158
  17    -0.017179471021839
  18    -0.022263835738873
  19    0.0053463596869314
  20    0.0049152984185899
  21    -0.0098443491446465
  22    -0.011668082743879
  23    0.0060042223011891
  24    -0.00031207497189936
  25    -0.0053698117506619
  26    -0.0032092356625023
  27    -0.0039658859009247
  28     0.010093507381795
  29    -0.0004284995430441
  30    -0.0046089140011753
  31    -0.005907178358419
  32    0.0083394932753885
  33    6.6535535189259e-05
  34    0.0056336046212168
  35     0.010108672365055
  36    0.0017293328552785
  37    0.0023259353367896
  38    -7.3405617758831e-05
  39    0.00044498805957779
  40    -0.00032939222963088
  41    0.00033766790288111
  42    -1.7267424384419e-05
  43    -0.011004400670496
  44    -0.020578496034185
  45    -0.00081530825505464
  46    0.0015675094452205
  47    -0.0005689358179859
  48     0.013703406596384
  49     0.034201151086875
  50    -0.001085819840824
  51    0.00035274336355751
  52    0.00045231144145268
  53     0.010539070212591
  54      0.02329301275493
  55    0.0014146417857588
  56    -0.010047524060076
  57    0.0031285078326151
  58    0.0041974551236981
  59     -0.15203510470104
  60     -0.12193915402982
  61     -0.15305006717205
  62       0.4174169041512
  63     -0.24016269369664
  64     -0.10105079289798
  65        0.274976477395
  66     -0.15806109462015
  67    0.0034729148064154
  68    -0.0053720625152973
  69      0.01424070228983
  70     0.010667841038502
  71    0.0094628736247994
  72    0.0096887266481506
  73     0.016166520448512
  74    0.0010197448869297
  75    -0.0078231344388005
  76    0.0068003629525142
 Sym= A
 Ene=               9
 Spin= Alpha
 Occup=    1.00000
   1    0.0007767855003209
   2     0.016947815676737
   3     -0.01763558675546
   4     0.022203181558055
   5    0.0060276072563089
   6    0.00011532119326174
   7    0.0097983443972509
   8    -0.00094971799334273
   9    -0.013821837649899
  10    0.0049063876184996
  11    -0.011420271180514
  12    0.00039075504959052
  13    -0.00087807157803625
  14    -0.00037703999294216
  15    -0.0019470383363741
  16     -0.15039890452561
  17     0.010830655610856
  18    -0.094733159144266
  19    0.00062685133041134
  20     -0.28769170988618
  21    -0.025557010592901
  22    0.0019238971612964
  23     -0.04663553194904
  24    -0.049592952139537
  25    -0.029425843866079
  26    0.00074235875281972
  27    -0.0055006325115193
  28    -0.0004706907577735
  29    0.0041837722695796
  30     -0.15212549396031
  31     -0.12202356097877
  32      0.15349032027611
  33    0.00065498218582925
  34      0.48158912108055
  35       0.1012556939871
  36    0.00057520089393585
  37      0.31725519580417
  38    -0.018005905084261
  39    -0.010900833714528
  40    -9.9634701361752e-05
  41    -0.0017708706613032
  42    -7.727745090429e-05
  43     0.012781188231899
  44     0.023750258501031
  45    -0.0014779834535046
  46    -0.0020915127648062
  47    -0.010196026445372
  48     0.011708131131102
  49     0.016603208764912
  50    -0.0010619790489631
  51    0.0017692693628648
  52    -0.010115848246482
  53    -0.0097193137400638
  54    -0.020009606363344
  55    0.00086407452431924
  56    0.00035462726953863
  57    0.0016459082861812
  58    -0.00042791930241644
  59    -0.0046121946938288
  60    -0.0058997512046149
  61    -0.0083826148518622
  62    0.0049653369649899
  63    -0.0025933812936519
  64    -0.010146246988932
  65    0.0029649873141418
  66    0.00058701901615032
  67    1.2908043580134e-05
  68    0.00022859835057732
  69    -0.00023864084238875
  70    0.00039194462071417
  71    -0.00037737526790662
  72     0.011892186361334
  73     0.033758532836649
  74    0.0010049899263086
  75    0.00055380899551655
  76    0.00019352123871939
 Sym= A
 Ene=              10
 Spin= Alpha
 Occup=    1.00000
   1    -0.0066966162033257
   2    -0.036083900254147
   3    -0.028311687111331
   4     0.016861586426702
   5    -0.044261324136235
   6     0.025820241094195
   7    -0.0031216870530885
   8    0.00031596808303565
   9    0.00088492771737202
  10    -0.00064802426312926
  11    0.0012196406601383
  12    -0.0011748556872673
  13    -0.00039124598548328
  14    -0.0019308076153669
  15    -9.6852891228812e-05
  16    0.0014916373839886
  17    0.0040849472646722
  18    -0.0042643701912669
  19    -0.0021485557688438
  20    0.0027673939228158
  21    -0.015449518967405
  22    -0.013349841415539
  23    0.0064525350899556
  24    -0.00024184967278639
  25    -0.0014133545710114
  26    0.00017716446284012
  27    0.00040782852680045
  28    0.0025468510395681
  29    4.5985027683522e-05
  30    -0.000870008550633
  31    -0.0032144927223034
  32    0.0020667344785202
  33    0.00052305479485048
  34    0.0011960576805115
  35    0.0033812101363285
  36    0.0014065758127609
  37    0.00048845026890993
  38    -2.0311143013499e-05
  39    0.00012432322416035
  40    -2.2480318480161e-05
  41    9.9342335505392e-05
  42    6.238026214976e-05
  43    -0.0027396083630013
  44    -0.0080179973642917
  45    9.3296180256482e-06
  46    0.00035297906628248
  47    -0.00016685681966159
  48     0.002751345823436
  49     0.023245651452631
  50    -0.00098820954114038
  51    -0.00049144787094341
  52    0.00044908978627681
  53    -0.00030967869680512
  54     0.012656681053486
  55    0.0013285700438618
  56    -0.0016437502860366
  57    0.0019361022938654
  58    0.0054938462381412
  59      0.46836579185541
  60      0.54914341682549
  61     -0.10333396220343
  62      0.18968361523611
  63     -0.11189082751941
  64    -0.072181257092038
  65       0.1338911101672
  66    -0.079335680191682
  67    0.00082352326344792
  68    -0.0014970056974894
  69    0.0031617154146635
  70    0.0022443504648048
  71    0.0025561797002869
  72    -0.00030687538114463
  73     0.010302228022506
  74    0.0012149710651202
  75    -0.0024998849098127
  76    0.0004030078086391
 Sym= A
 Ene=              11
 Spin= Alpha
 Occup=    1.00000
   1    -9.7073943682303e-05
   2    0.0013117265202734
   3    0.0039585565326442
   4    0.0043742244440641
   5    0.0012438733786339