[Molden Format]
made by pyscf v[2.0.1]
[Atoms] (AU)
C   1   6     0.00000000000000     0.00000000000000     0.00000000000000
C   2   6     2.85207482267819     0.00000000000000     0.00000000000000
F   3   9     3.65415199667903     0.00000000000000     2.45977207315200
H   4   1     3.58561868306314    -1.67891019462705    -0.93677358840720
H   5   1     3.58561868306314     1.67891019462705    -0.93677358840720
H   6   1    -0.73354386038494     0.02818537215858    -1.92236567342330
F   7   9    -0.80207717400084     2.13022510286915     1.22988603657600
H   8   1    -0.73354386038494    -1.65072482246847     0.98559208501610
[GTO]
1 0
 s    8 1.00
                  6665  0.00069158396281299
                  1000  0.0053257961529341
                   228   0.027060721042034
                 64.71    0.10165684614077
                 21.06     0.2745748236174
                 7.495    0.44829431892377
                 2.797    0.28490261071525
                0.5215   0.015194859206082
 s    8 1.00
                  6665  -0.00029326965268655
                  1000  -0.0023180354739745
                   228  -0.011499786038565
                 64.71  -0.046826727009787
                 21.06   -0.12846616875047
                 7.495   -0.30126627246289
                 2.797   -0.25563070233011
                0.5215      1.093793361012
 s    1 1.00
                0.1596                   1
 p    3 1.00
                 9.439   0.056979251590039
                 2.002    0.31320721150073
                0.5456    0.76037674173753
 p    1 1.00
                0.1517                   1
 d    1 1.00
                  0.55                   1

2 0
 s    8 1.00
                  6665  0.00069158396281299
                  1000  0.0053257961529341
                   228   0.027060721042034
                 64.71    0.10165684614077
                 21.06     0.2745748236174
                 7.495    0.44829431892377
                 2.797    0.28490261071525
                0.5215   0.015194859206082
 s    8 1.00
                  6665  -0.00029326965268655
                  1000  -0.0023180354739745
                   228  -0.011499786038565
                 64.71  -0.046826727009787
                 21.06   -0.12846616875047
                 7.495   -0.30126627246289
                 2.797   -0.25563070233011
                0.5215      1.093793361012
 s    1 1.00
                0.1596                   1
 p    3 1.00
                 9.439   0.056979251590039
                 2.002    0.31320721150073
                0.5456    0.76037674173753
 p    1 1.00
                0.1517                   1
 d    1 1.00
                  0.55                   1

3 0
 s    8 1.00
                 14710  0.00072067370873197
                  2207  0.0055504869689163
                 502.8   0.028254207662589
                 142.6    0.10639582836653
                 46.47    0.28668420124307
                  16.7    0.44843796582416
                 6.356    0.26464118141135
                 1.316   0.015326060993048
 s    8 1.00
                 14710  -0.00032119389049893
                  2207  -0.0025461915683188
                 502.8  -0.012643359507821
                 142.6   -0.05195749170489
                 46.47   -0.14344713812646
                  16.7   -0.33243762329603
                 6.356   -0.21865906750347
                 1.316     1.0955904138622
 s    1 1.00
                0.3897                   1
 p    3 1.00
                 22.67   0.064834021493887
                 4.977    0.34053535983101
                 1.347    0.73464640679382
 p    1 1.00
                0.3471                   1
 d    1 1.00
                  1.64                   1

4 0
 s    3 1.00
                 13.01   0.033498726389998
                 1.962    0.23480080117413
                0.4446     0.8136829578829
 s    1 1.00
                 0.122                   1
 p    1 1.00
                 0.727                   1

5 0
 s    3 1.00
                 13.01   0.033498726389998
                 1.962    0.23480080117413
                0.4446     0.8136829578829
 s    1 1.00
                 0.122                   1
 p    1 1.00
                 0.727                   1

6 0
 s    3 1.00
                 13.01   0.033498726389998
                 1.962    0.23480080117413
                0.4446     0.8136829578829
 s    1 1.00
                 0.122                   1
 p    1 1.00
                 0.727                   1

7 0
 s    8 1.00
                 14710  0.00072067370873197
                  2207  0.0055504869689163
                 502.8   0.028254207662589
                 142.6    0.10639582836653
                 46.47    0.28668420124307
                  16.7    0.44843796582416
                 6.356    0.26464118141135
                 1.316   0.015326060993048
 s    8 1.00
                 14710  -0.00032119389049893
                  2207  -0.0025461915683188
                 502.8  -0.012643359507821
                 142.6   -0.05195749170489
                 46.47   -0.14344713812646
                  16.7   -0.33243762329603
                 6.356   -0.21865906750347
                 1.316     1.0955904138622
 s    1 1.00
                0.3897                   1
 p    3 1.00
                 22.67   0.064834021493887
                 4.977    0.34053535983101
                 1.347    0.73464640679382
 p    1 1.00
                0.3471                   1
 d    1 1.00
                  1.64                   1

8 0
 s    3 1.00
                 13.01   0.033498726389998
                 1.962    0.23480080117413
                0.4446     0.8136829578829
 s    1 1.00
                 0.122                   1
 p    1 1.00
                 0.727                   1

[5d]
[7f]
[9g]

[MO]
 Sym= A
 Ene=               0
 Spin= Alpha
 Occup=    1.00000
   1        1.002228987644
   2    -0.00078945289222496
   3    -0.011578279078874
   4    0.0005194912053828
   5    0.0020385704713397
   6    0.0010521671851477
   7    -0.00088378666039039
   8    0.0011182958770742
   9    0.00060088886646411
  10    8.7843171658479e-05
  11    1.1200066618207e-05
  12    2.9377823031399e-05
  13    -0.00012870388660769
  14    -1.7106269006992e-05
  15    -0.00010707853249412
  16    -0.00062932824420406
  17    0.0023636761303254
  18     0.001145379976108
  19    -2.0712719607191e-05
  20    -6.9295995363851e-05
  21    -0.00093691857566117
  22    -0.0001125610709979
  23    3.6467251867194e-05
  24    0.00015619460633752
  25    2.7415070689866e-05
  26    3.1195798081372e-05
  27    -0.00030932386712584
  28    2.419756857783e-05
  29    -1.6283708356637e-05
  30    1.1631401683401e-05
  31    -2.566588568132e-05
  32    -0.00017318430031918
  33    -3.5404301372694e-05
  34    -3.1970056571361e-06
  35    -0.00029601261842346
  36    1.4319766601187e-05
  37    5.8197709574262e-05
  38    -1.1444732824693e-05
  39    -8.0085222265227e-07
  40    5.0315314112326e-06
  41    2.6728179933897e-05
  42    -4.1721467220764e-06
  43    0.00017842702539769
  44    0.00038740501681607
  45    -4.4359800522619e-05
  46    4.7837379577933e-05
  47    4.5227280101591e-06
  48    -4.7370879253132e-06
  49    0.00025957570658417
  50    -5.5167547161105e-05
  51    -3.294929569851e-05
  52    -7.5453228051435e-06
  53    -0.0030701680740899
  54    0.00077022987320401
  55    -0.00011639154498644
  56    -2.7946094238368e-05
  57    -0.00065047863743028
  58    0.0001427496299011
  59    2.0571954688041e-05
  60    -0.00026109829068659
  61    -0.000369476215723
  62    0.00081350611675567
  63    0.00046245180111097
  64    -0.00046364465394907
  65    0.0012503718650864
  66    0.00073495968001806
  67    5.4176883016726e-05
  68    7.9371501205749e-05
  69    -0.00024113679635087
  70    0.0001826188997324
  71    0.00013703983180648
  72    -0.0030205756270602
  73    0.00080458821287104
  74    -9.4251001191363e-05
  75    -0.00053234587669794
  76    0.00028642930228206
 Sym= A
 Ene=               1
 Spin= Alpha
 Occup=    1.00000
   1    -0.00010614949788663
   2    -0.00063165788029338
   3    0.0023641325080022
   4    -0.0011387064731458
   5    -4.9166638532669e-05
   6    -4.3210778405039e-05
   7    0.00094014300351574
   8    8.7857776426981e-05
   9    -7.7936893297057e-05
  10    0.0002052522753787
  11    -3.3607740596966e-05
  12    -1.0567317144943e-06
  13    -0.000282432992548
  14    -1.1857765149791e-05
  15       1.0022292477295
  16    -0.00084103782779668
  17    -0.011607579392123
  18    -0.00055023358347727
  19    -0.00011176414498231
  20    0.0023262776850907
  21    0.00087186313293882
  22    -4.0644152502119e-05
  23    0.0012836869591365
  24    9.6032493317996e-05
  25    1.0265145363008e-05
  26    2.4955255506628e-05
  27    -0.00012250632973706
  28    -1.8330247335124e-05
  29    0.00014322085019001
  30    2.333541983822e-05
  31    -0.00025783217494531
  32    0.0003708165980277
  33    -6.0290026000979e-06
  34    0.0009332201229757
  35    0.0004667442036979
  36    1.1697279436001e-05
  37    0.0014469049664325
  38    -0.00030703123135857
  39    -0.00015819163933744
  40    -8.0626436460456e-07
  41    -2.528409859549e-05
  42    -2.0517709919255e-07
  43    -0.0031160996907403
  44    0.00075961247298161
  45    0.00011750003965653
  46    -0.00055397357710054
  47    -0.00035085084113529
  48    -0.0030714071330139
  49    0.00079291819942903
  50    9.5461670781366e-05
  51    0.00051910392034646
  52    -0.00031937579004032
  53    0.00016850613858692
  54    0.00038397415764785
  55    4.4352972840938e-05
  56    -1.9863742271719e-05
  57    4.2664960864548e-05
  58    -1.6276294629521e-05
  59    1.1990201192355e-05
  60    -2.5265438154377e-05
  61    0.00017323150787735
  62    1.5035540563096e-05
  63    -3.320079060236e-05
  64    0.0002952697910028
  65    4.3436980553036e-05
  66    4.041817581479e-05
  67    -1.22432888557e-05
  68    3.9907564915311e-06
  69    5.4314253197315e-06
  70    2.6356192562306e-05
  71    -1.5357006969438e-06
  72    -5.9263150604706e-06
  73    0.00025701472061914
  74    5.5427317452651e-05
  75    9.8495289756716e-06
  76    -3.1944953092545e-05
 Sym= A
 Ene=               2
 Spin= Alpha
 Occup=    1.00000
   1    2.1549683203905e-05
   2    2.8007548979279e-05
   3    -0.00088775524533529
   4    -0.00013344351107531
   5    9.7957047746376e-06
   6    1.3215511016129e-06
   7    -0.00035941448513791
   8    -4.413146538255e-05
   9    -0.00013077355097437
  10    7.561420479764e-05
  11    -1.521473480181e-05
  12    3.206440166303e-06
  13    -3.5750516827912e-05
  14    -3.0741766049244e-06
  15    -4.1123746536418e-05
  16    6.928638981454e-05
  17    0.0030316636220016
  18    0.00025399897016745
  19    -5.8917678022357e-06
  20    0.00053384989205661
  21    -1.1844135361499e-05
  22    6.3437121526881e-05
  23    0.0012705017390733
  24    -9.2899671706322e-06
  25    1.2753182382769e-05
  26    -6.3933549811148e-06
  27    -2.9024561097318e-06
  28    -2.8742412506642e-06
  29       1.0009667472372
  30    -0.0040361820006997
  31    -0.010740083235259
  32    -0.00088766243238605
  33    -3.2339956071658e-05
  34    -0.0027853861204532
  35    4.920345526067e-05
  36    -1.652546098648e-05
  37    4.5666027646206e-05
  38    -0.00015531915791485
  39    -9.1149260988158e-05
  40    2.5822096065324e-06
  41    -1.1840929435698e-05
  42    -6.7660320131101e-08
  43    -0.00025054732352408
  44    -0.00019062710179985
  45    6.4761024691405e-06
  46    -2.0843929376167e-05
  47    -0.00015527453501504
  48    -0.00027505263645332
  49    -0.00024817749070322
  50    1.4332169484706e-05
  51    2.0524825435213e-05
  52    -0.00016369402070174
  53    1.2568234588373e-05
  54    0.00019814512557481
  55    3.0196438876331e-05
  56    -1.2818168748795e-07
  57    1.3762507846023e-05
  58    2.4401669916912e-05
  59    4.8852564040011e-05
  60    -3.4117931010777e-05
  61    3.9470090192987e-05
  62    1.3255470421877e-05
  63    6.0086658290525e-06
  64    -0.00011741412414855
  65    -1.24157465896e-05
  66    -7.0215314279811e-06
  67    1.3067959780878e-05
  68    -3.8843568169235e-06
  69    2.3115579907238e-06
  70    -1.3380180229204e-05
  71    1.1245058111252e-05
  72    5.1965077508105e-05
  73    -0.00014649721802621
  74    -7.1464773550485e-05
  75    -6.3976678783036e-06
  76    -1.9575685521272e-05
 Sym= A
 Ene=               3
 Spin= Alpha
 Occup=    1.00000
   1    -4.1223777394941e-05
   2    6.7458817188494e-05
   3     0.003030471211494
   4    -0.00025277669869625
   5    0.0004656077883824
   6    0.00026191456941819
   7    1.226677263788e-05
   8    0.0010688214726485
   9    0.00069027278619747
  10    -1.7976977795328e-06
  11    -3.8789029757619e-06
  12    -1.1282311404447e-05
  13     1.37539082379e-06
  14    -1.2559560517732e-05
  15    2.1548127071234e-05
  16    2.7869744601964e-05
  17    -0.00088775168523196
  18    0.00013319993986222
  19    -5.2555207785738e-06
  20    9.2837059393089e-06
  21    0.00035911536256789
  22    -9.1696540540408e-05
  23    -0.00010343356408362
  24    1.619442101296e-05
  25    1.0289540761512e-05
  26    4.2915342612218e-05
  27    -7.0086066770928e-05
  28    1.1588266821549e-05
  29    2.4406899692451e-05
  30    4.8861718337806e-05
  31    -3.4180737202277e-05
  32    -3.9437821432588e-05
  33    -1.3491704039849e-06
  34    1.4459469415422e-05
  35    0.00011747698224359
  36    2.8418423844972e-07
  37    -1.4268096886034e-05
  38    8.7859982445754e-06
  39    -7.7935993843095e-06
  40    5.1846021128631e-06
  41    -1.5848361589438e-05
  42    8.9888744573404e-06
  43    1.3499336730767e-05
  44    0.00019862077966594
  45    -3.0250970160784e-05
  46    1.2014014081385e-05
  47    6.8059964158549e-06
  48    5.0653506648894e-05
  49    -0.00014690270422719
  50    7.1505972819965e-05
  51    -1.3701376436267e-05
  52    -1.5370619604291e-05
  53    -0.00025178246820607
  54    -0.00019070887902726
  55    -6.4882501125546e-06
  56    -0.00012404200306774
  57    -9.581941325907e-05
  58       1.0009668421506
  59    -0.0040293203970108
  60    -0.010731935998405
  61    0.00088842690463691
  62    -0.0023929327132058
  63    -0.0014192505034751
  64    -4.8701366167702e-05
  65    4.9963665033149e-05
  66    9.5118627190137e-06
  67    2.9051146968143e-05
  68    4.5627745427958e-05
  69    -0.0001203871042838
  70    9.4669552448841e-05
  71    7.889877549496e-05
  72    -0.00027646376618191
  73    -0.00024843041035242
  74    -1.4354948916466e-05
  75    -0.00015213674388889
  76    -6.3999502667095e-05
 Sym= A
 Ene=               4
 Spin= Alpha
 Occup=    1.00000
   1    -0.0014941522611847
   2    -0.018327493176972
   3    -0.046500292784996
   4    -0.027608559632304
   5    -0.0022893879978287
   6    -0.0031267607952154
   7    -0.032043655110898
   8    -0.014785350484455
   9     0.025005108016826
  10     0.001799840304022
  11    -0.00042851654822941
  12    0.0001641367416274
  13    -0.00027832168786644
  14    -0.0013875594488973
  15    -0.0010843823840199
  16    -0.0015945103089926
  17      0.01119363856324
  18    -0.0080563966087556
  19    0.0071977861417364
  20    0.0025740254666638
  21    -0.031126943795549
  22      0.02691411784339
  23    -0.011019302138988
  24     0.011968358670008
  25    -0.019530323526517
  26     0.025873690283317
  27    -0.0088998245423978
  28    0.0055736643077262
  29    -0.00071166797842841
  30    -0.00065309425824776
  31    0.0087459731369452
  32     -0.43913420224788
  33      0.48088981534711
  34        0.141296651704
  35     -0.31023359307138
  36        0.339075898119
  37     0.097071114856468
  38    -0.0044792620107366
  39    0.0074241917251458
  40    -0.0088907237172041
  41    0.0028376884771857
  42    -0.0029810013087094
  43     0.045839682398674
  44     0.053724525487346
  45    0.0010606504766833
  46    -0.001268555175508
  47    0.0017280802080911
  48    -0.015352906709183
  49    -0.019372614464313
  50    0.0011131030522052
  51    -0.00077205141364871
  52    0.00020482132759422
  53    0.0097183139373677
  54     0.023418581279061
  55    -0.0013763774803558
  56    0.00011084698256809
  57    0.00073976302949433
  58    -0.0010615453907136
  59    -0.004226988989228
  60     0.001376667107644
  61    -0.0053131469616689
  62    0.0019139159682152
  63    -0.0052933262680115
  64    0.0035045046005412
  65    0.0025157036449616
  66    -0.0034881649422481
  67    1.2056916712785e-05
  68    0.00081519428997518
  69    -0.00020872520459875
  70    0.00053819969264269
  71    0.00010580680364673
  72    -0.0067797008995437
  73    -0.013690233842204
  74    -0.00067437518283808
  75    -0.0011173271762383
  76    -0.00053766774187438
 Sym= A
 Ene=               5
 Spin= Alpha
 Occup=    1.00000
   1    0.00075456558524983
   2      0.01852956801663
   3     0.058825442665252
   4     0.028888255304456
   5    -0.007344106033057
   6    0.0042202404041588
   7     0.014954823654185
   8    -0.023322268134043
   9    -0.019730402332783
  10     -0.00201095249305
  11     0.000318761757686
  12    0.00039317850347379
  13    -0.00026837637630961
  14    -0.00057638493761637
  15    0.0010187916222916
  16    0.0021132156039811
  17    -0.00083546552697012
  18    0.0070038299519273
  19    0.0067312207558565
  20    -0.0014361882686103
  21     0.021072096240816
  22     0.027959942913797
  23    0.0096849988856357
  24    -0.012689566222492
  25     0.020236680605274
  26     0.024451179435521
  27    0.0099850226491602
  28    0.0058247064142499
  29    0.0011190398141221
  30    0.00060221365156043
  31    -0.0098352798281543
  32      0.45626424193798
  33      0.46180424871711
  34     -0.14777165394393
  35      0.32324999445053
  36       0.3257736196683
  37      -0.1020764731862
  38    0.0049504895502988
  39    -0.0076269293597428
  40    -0.008401494747686
  41    -0.002550400391573
  42    -0.0032191822181202
  43     0.012887667579943
  44     0.019776795125566
  45    -0.0012820019278803
  46    -0.00068385492239111
  47     0.000144227058001
  48    -0.044791486413307
  49    -0.049590631503104
  50    -0.0011646064538648
  51    -0.0011307477672421
  52    -0.0016065635456853
  53    -0.013008425566739
  54    -0.023297329206627
  55     0.002012709579098
  56    0.00054514859208327
  57    -0.0009319776719726
  58    -0.00099290685171223
  59    -0.00038879526279934
  60     0.011587215785865
  61    -0.0010685555075094
  62    -0.0014234152556231
  63    0.00026460584859124
  64    -0.0020903119273781
  65    -0.002186962021566
  66    4.8840575207403e-05
  67    -0.00024994747902987
  68    -0.00032561320529369
  69    5.6928615387763e-05
  70    -3.887109579314e-05
  71    -0.0002598186802435
  72    0.0058787676359235
  73    -0.024833747521272
  74    -0.001373595825555
  75    1.685838757622e-05
  76    0.00019519430705464
 Sym= A
 Ene=               6
 Spin= Alpha
 Occup=    1.00000
   1    -0.0010347859571609
   2    -0.0031319694085365
   3    0.00017000718960467
   4    0.0075845137242226
   5    0.0065196328804552
   6    -0.006479404395281
   7     0.021364728938608
   8    0.0062466653235976
   9    -0.029482157652635
  10    -0.013394175783207
  11     0.015181882828725
  12    -0.0068638166782878
  13    -0.025030227160954
  14     0.014499977388282
  15    -0.00074670197185635
  16    -0.017883007319664
  17    -0.058411438697581
  18     0.029168542810945
  19    -0.0080561689256466
  20    0.0037217100986416
  21     0.015070707413013
  22    0.0052071150960182
  23     0.029776204059474
  24    -0.00070963096249648
  25    -0.00028339070069937
  26    0.0014850969975322
  27    -0.0013539632978986
  28    0.00044787549881959
  29    0.00098166203305907
  30    0.00037085018112024
  31    -0.011506325705804
  32    -0.0011253278777359
  33    -0.00090954185280024
  34    0.0011315644622329
  35    -0.002188477797317
  36    -0.0010717613761199
  37    0.0019098218802131
  38    -9.3069129980996e-05
  39    -0.00038907560097275
  40    0.00018745701184263
  41    -0.000165614777184
  42    -0.00015296038547741
  43     0.014217354325841
  44      0.02374584487501
  45    0.0019634305452621
  46    0.0011507010466458
  47    3.3603870098635e-05
  48    -0.005971204891625
  49      0.02446247967251
  50    -0.0013627816568043
  51    -0.00020380023486299
  52    -0.00010979436741359
  53    -0.012333195989897
  54    -0.019328150080608
  55    -0.0012468789444363
  56    -0.00041417148541671
  57    0.00050495448660508
  58    -0.0011144280568579
  59    -0.00021147684470864
  60     0.010279001575011
  61      0.45684546062589
  62      0.35822827633626
  63     -0.32567146857865
  64      0.32362709912135
  65      0.25075249164719
  66      -0.2307182256138
  67    0.0052749794174076
  68    -0.0066145648156146
  69    0.0016024524845172
  70    0.0084643546655942
  71    -0.0050118056874931
  72     0.042131248466406
  73     0.048683538057869
  74    -0.0012583675184715
  75    0.00068367168496455
  76    0.0018778531893686
 Sym= A
 Ene=               7
 Spin= Alpha
 Occup=    1.00000
   1    -0.0010764465948509
   2    -0.0025067096280926
   3     0.010545385225373
   4    0.0086725565072346
   5    -0.0017631033616995
   6     0.010038910884078
   7     0.031270098921481
   8    -0.023168577714257
   9     0.018703810709273
  10     0.023557941018061
  11    0.0048191937109887
  12     0.018094400106966
  13    -0.002163405349443
  14     0.019651741617025
  15    -0.0014729185453691
  16    -0.017925904203254
  17    -0.046140719167911
  18       0.0276218138754
  19    -0.0021580111643574
  20    -0.003591577885749
  21     0.031978978057137
  22     0.028753908628214
  23    -0.00031353478657931
  24    4.674184048267e-05
  25    0.0012866765563537
  26    0.0013326380705685
  27    -0.0013062879008011
  28    -0.00031382079472774
  29    -0.0010603771051629
  30    -0.004301917254735
  31    0.0011813998767466
  32    0.0054004420829568
  33    -0.0054821258930722
  34    -0.00085597748605967
  35    -0.0033906961896562
  36    -0.0041905372150006
  37    0.00053896118133352
  38    -0.00050333134334428
  39    -0.00049737996292222
  40    0.00014525388337227
  41    0.00024013643508361
  42    -0.00065016288869584
  43     0.010396248470087
  44     0.023598546477749
  45    0.0013428062138119
  46    0.00062009056972624
  47    0.00048407880923122
  48    -0.0068943219539571
  49    -0.013672683980272
  50    0.00067677060840564
  51    9.5834433110015e-05
  52    -0.0012471790354515
  53     0.043085105615852
  54     0.052762980126585
  55    -0.0011587923097014
  56    0.0021383881545504
  57    -0.00041400635309847
  58    -0.00070635746520501
  59    -0.00031178629084268
  60    0.0091266463379268
  61      0.43874443953189
  62     -0.11874526685614
  63      0.48708526728986
  64      0.30992207823089
  65     -0.08587882494932
  66      0.34202758157262
  67    -0.0079844347752994
  68    -0.0011232976910863
  69    -0.0065936251844385
  70    0.00081453882282362
  71    -0.0079293908954817
  72    -0.014708761327244
  73    -0.019067747440758
  74    -0.0010660031370592
  75    0.00058204874140615
  76    -0.00052235292357132
 Sym= A
 Ene=               8
 Spin= Alpha
 Occup=    1.00000
   1    -0.0023484484068012
   2     -0.15514431220163
   3    0.0036795171001478
   4     0.096135543808353
   5     -0.24896917844239
   6     -0.14273236399704
   7     0.026121927989567
   8    -0.043258770728989
   9    -0.025909566850698
  10     0.010226856374324
  11     0.013699177208199
  12    -0.039743285379162
  13     0.028897020367116
  14      0.02546312418469
  15    -0.00079579202677417
  16     0.011087899433819
  17    -0.005644741248063
  18    -0.024927448991483
  19    0.0028932021267874
  20    -0.0024476808490175
  21    -0.013095074303131
  22    -0.00033502442969294
  23     0.002875431110655
  24    0.0023123755948841
  25    0.0055942983859096
  26    0.00085197454473425
  27    -0.0041356131882858
  28    0.0096721598267444
  29    0.00035454214441455
  30     0.002254411524702
  31    0.00064404600615241
  32    -0.0023656102742672
  33    0.00062068521142454
  34    -0.0037833693586823
  35    0.0025887412762047
  36    0.00056159592811622
  37    -0.0022398127747441
  38    -9.0696622223928e-05
  39    0.00043856163552807
  40    -3.8260071553199e-05
  41    -1.1821265269902e-05
  42    0.00030502785859979
  43    -0.020132334120775
  44    -0.017309223821742
  45    0.00023817721394579
  46    0.0006155582119421
  47    0.00016409603975343
  48    0.0090437509308513
  49     0.011969744465249
  50    -0.0008680674938279
  51    -0.00086265888621175
  52    -0.0003905765539352
  53    0.0089996346479711
  54     0.019935252884936
  55    0.0013890022088802
  56    -0.0077160814199189
  57    -0.0070296205481183
  58    0.0040660343265773
  59     -0.15111224219058
  60     -0.11766936030793
  61     -0.15500028607887
  62      0.41570899335256
  63      0.24018195627362
  64      -0.1027244937192
  65      0.27280949758339
  66      0.15768959309067
  67    0.0032931593223251
  68    0.0054773441356148
  69    -0.014520544361678
  70      0.01059919995267
  71    0.0093957975181445
  72     0.010502885635436
  73     0.021182304746471
  74    0.0012876328935014
  75    -0.0099294395334768
  76    -0.0031235954245897
 Sym= A
 Ene=               9
 Spin= Alpha
 Occup=    1.00000
   1    -0.00084669816486342
   2     0.011173717747564
   3    -0.0056053975589568
   4     0.024436357782318
   5    -0.002654170926763
   6    -0.00091326879361169
   7     0.012949303116944
   8    0.0029888856978298
   9    0.00045711553612218
  10    0.0030990748010814
  11    -0.011168352299785
  12    0.00041077663620286
  13    -0.0036340317270947
  14    -3.9530407656461e-05
  15     -0.00237217036512
  16     -0.15282798169031
  17    0.0049925429617483
  18    -0.094498518921222
  19    0.00097648444348857
  20     -0.28885221955626
  21    -0.025427729532624
  22    -0.00069510782268098
  23    -0.051219205730786
  24    -0.049923546092272
  25    -0.028841378080019
  26    0.00032359097807548
  27    -0.0058953036666446
  28    0.00081860665957664
  29    0.0040414374127177
  30     -0.15123835917557
  31     -0.11771603327228
  32      0.15559710477744
  33    0.00018055662348001
  34       0.4800710493834
  35      0.10298940998365
  36    0.00016874540815916
  37      0.31515445551683
  38    -0.018146720207995
  39     -0.01090129421196
  40    -0.00020229265776007
  41    -0.0018180231194121
  42    -4.8042177013798e-05
  43     0.011294724572747
  44     0.020520958588249
  45    -0.0014452281594292
  46    -0.002005937501886
  47    -0.010128604700513
  48     0.012796063450364
  49     0.021531154521952
  50    -0.0013357004898278
  51    0.0020192352503832
  52    -0.010089424275241
  53    -0.018143536862055
  54    -0.016535888299055
  55    -0.00017649006426062
  56    -0.000155593541713
  57    0.00074124093498755
  58    0.00035450109553131
  59    0.0022464632817639
  60    0.00064427200894065
  61    0.0023906592906871
  62    -0.0036694566237506
  63    -0.0011829894087765
  64    -0.0025256282820191
  65    -0.0023460732943815
  66    -0.00038423117956313
  67    1.5883822161435e-05
  68    -0.00048726072057038
  69    -7.4269056485958e-05
  70    4.3156639529468e-05
  71    -0.00021557760506957
  72    0.0077311099646153
  73     0.011564641448088
  74    0.00079246286409987
  75    3.128759486736e-05
  76    -0.00094352792665069
 Sym= A
 Ene=              10
 Spin= Alpha
 Occup=    1.00000
   1    -0.0068895530934156
   2    -0.036821825004252
   3    -0.030409578451894
   4     0.017263557215779
   5     -0.04446501693119
   6    -0.025391719239881
   7    -0.0018243512117425
   8    -0.0037718511533668
   9    -0.0028378612289349
  10    -7.3697569156091e-05
  11    -0.0010548552000763
  12    0.0017162595633354
  13    -0.0012024969963377
  14    -0.0012004392917695
  15    -0.0012479745360217
  16    -0.0019623147361337
  17     0.010172235130186
  18    -0.0029162870888513
  19    -0.0017885762883894
  20    -0.0016449940935619
  21    -0.014455671626995
  22    -0.00056917303271968
  23    0.0041560811498866
  24    0.00061288162353569
  25    0.0018992308634409
  26    -0.00040553570734046
  27    0.00010588071993236
  28    0.0027738914839284
  29    0.00031281546177121
  30    0.00073592628457619
  31    -0.0023406617226985
  32    0.00027814289624276
  33    -0.00071988001736759
  34    -0.0015556846018351
  35    0.0017966455423592
  36    0.00036723563464608
  37    -0.00033278853890208
  38    -7.9870655013415e-05
  39    -2.5773336385389e-05
  40    -5.4426695456215e-06
  41    -4.3588892592631e-05
  42    1.8340002375411e-05
  43    -0.0034946356376874
  44    -0.0013051210135726
  45    -0.00047566331000537
  46    0.00080141765340812
  47    0.0001448210207493
  48    0.0003053079395028
  49    0.0081905371108885
  50    0.00019353876298958
  51    -0.000351721152819
  52    -1.6381222461682e-05
  53    0.00053190617828743
  54     0.012514806321501
  55    0.0013204403496046
  56    -0.002295456183258
  57    -0.00036620416953377
  58    0.0064128600741115
  59      0.46952629186097
  60      0.55200323219091
  61    -0.075994429703545
  62      0.19715828770905
  63      0.11589655277501
  64    -0.053506163722757
  65      0.13876383818759
  66     0.080937752186497
  67    0.00065266289356595
  68    0.0012129261148538
  69    -0.0034310003587693
  70    0.0025059374689345
  71    0.0021455911521286
  72    0.00071060416509179
  73     0.012403626600068
  74    0.0012089374820553
  75    -0.0014454740518739
  76    -0.001774562760594
 Sym= A
 Ene=              11
 Spin= Alpha
 Occup=    1.00000
   1    -0.0012516251864697
   2    -0.0020008110235005
   3     0.010122077959362
   4    0.0028904562454713
   5    -0.00037017879404652