[Molden Format]
made by pyscf v[2.0.1]
[Atoms] (AU)
C   1   6     0.00000000000000     0.00000000000000     0.00000000000000
C   2   6     2.85207482267819     0.00000000000000     0.00000000000000
F   3   9     3.65415199667903     0.00000000000000     2.45977207315200
H   4   1     3.58561868306314    -1.67891019462705    -0.93677358840720
H   5   1     3.58561868306314     1.67891019462705    -0.93677358840720
H   6   1    -0.73354386038494     0.68397336938011    -1.79679287274265
F   7   9    -0.80207717400084     1.58111101127508     1.88429472797734
H   8   1    -0.73354386038494    -1.88826628079960     0.36157246902272
[GTO]
1 0
 s    8 1.00
                  6665  0.00069158396281299
                  1000  0.0053257961529341
                   228   0.027060721042034
                 64.71    0.10165684614077
                 21.06     0.2745748236174
                 7.495    0.44829431892377
                 2.797    0.28490261071525
                0.5215   0.015194859206082
 s    8 1.00
                  6665  -0.00029326965268655
                  1000  -0.0023180354739745
                   228  -0.011499786038565
                 64.71  -0.046826727009787
                 21.06   -0.12846616875047
                 7.495   -0.30126627246289
                 2.797   -0.25563070233011
                0.5215      1.093793361012
 s    1 1.00
                0.1596                   1
 p    3 1.00
                 9.439   0.056979251590039
                 2.002    0.31320721150073
                0.5456    0.76037674173753
 p    1 1.00
                0.1517                   1
 d    1 1.00
                  0.55                   1

2 0
 s    8 1.00
                  6665  0.00069158396281299
                  1000  0.0053257961529341
                   228   0.027060721042034
                 64.71    0.10165684614077
                 21.06     0.2745748236174
                 7.495    0.44829431892377
                 2.797    0.28490261071525
                0.5215   0.015194859206082
 s    8 1.00
                  6665  -0.00029326965268655
                  1000  -0.0023180354739745
                   228  -0.011499786038565
                 64.71  -0.046826727009787
                 21.06   -0.12846616875047
                 7.495   -0.30126627246289
                 2.797   -0.25563070233011
                0.5215      1.093793361012
 s    1 1.00
                0.1596                   1
 p    3 1.00
                 9.439   0.056979251590039
                 2.002    0.31320721150073
                0.5456    0.76037674173753
 p    1 1.00
                0.1517                   1
 d    1 1.00
                  0.55                   1

3 0
 s    8 1.00
                 14710  0.00072067370873197
                  2207  0.0055504869689163
                 502.8   0.028254207662589
                 142.6    0.10639582836653
                 46.47    0.28668420124307
                  16.7    0.44843796582416
                 6.356    0.26464118141135
                 1.316   0.015326060993048
 s    8 1.00
                 14710  -0.00032119389049893
                  2207  -0.0025461915683188
                 502.8  -0.012643359507821
                 142.6   -0.05195749170489
                 46.47   -0.14344713812646
                  16.7   -0.33243762329603
                 6.356   -0.21865906750347
                 1.316     1.0955904138622
 s    1 1.00
                0.3897                   1
 p    3 1.00
                 22.67   0.064834021493887
                 4.977    0.34053535983101
                 1.347    0.73464640679382
 p    1 1.00
                0.3471                   1
 d    1 1.00
                  1.64                   1

4 0
 s    3 1.00
                 13.01   0.033498726389998
                 1.962    0.23480080117413
                0.4446     0.8136829578829
 s    1 1.00
                 0.122                   1
 p    1 1.00
                 0.727                   1

5 0
 s    3 1.00
                 13.01   0.033498726389998
                 1.962    0.23480080117413
                0.4446     0.8136829578829
 s    1 1.00
                 0.122                   1
 p    1 1.00
                 0.727                   1

6 0
 s    3 1.00
                 13.01   0.033498726389998
                 1.962    0.23480080117413
                0.4446     0.8136829578829
 s    1 1.00
                 0.122                   1
 p    1 1.00
                 0.727                   1

7 0
 s    8 1.00
                 14710  0.00072067370873197
                  2207  0.0055504869689163
                 502.8   0.028254207662589
                 142.6    0.10639582836653
                 46.47    0.28668420124307
                  16.7    0.44843796582416
                 6.356    0.26464118141135
                 1.316   0.015326060993048
 s    8 1.00
                 14710  -0.00032119389049893
                  2207  -0.0025461915683188
                 502.8  -0.012643359507821
                 142.6   -0.05195749170489
                 46.47   -0.14344713812646
                  16.7   -0.33243762329603
                 6.356   -0.21865906750347
                 1.316     1.0955904138622
 s    1 1.00
                0.3897                   1
 p    3 1.00
                 22.67   0.064834021493887
                 4.977    0.34053535983101
                 1.347    0.73464640679382
 p    1 1.00
                0.3471                   1
 d    1 1.00
                  1.64                   1

8 0
 s    3 1.00
                 13.01   0.033498726389998
                 1.962    0.23480080117413
                0.4446     0.8136829578829
 s    1 1.00
                 0.122                   1
 p    1 1.00
                 0.727                   1

[5d]
[7f]
[9g]

[MO]
 Sym= A
 Ene=               0
 Spin= Alpha
 Occup=    1.00000
   1       1.0022295149881
   2    -0.00078083500812764
   3    -0.011516013061236
   4    0.00053879031113931
   5    0.0015306586371883
   6     0.001684577250325
   7    -0.00085784638487015
   8    0.00082312918431642
   9    0.00095746867377682
  10    9.4560466848767e-05
  11    1.2409721450905e-05
  12    9.2706235022409e-06
  13    -0.00011563589388117
  14    -1.8912829688091e-05
  15    -0.00011231429867481
  16    -0.00063277140614197
  17    0.0024012689245606
  18    0.0011455628077791
  19    -1.821020284736e-05
  20    -6.2105380739862e-05
  21    -0.00085264559243621
  22    -3.0060386484498e-05
  23    -5.7440546882038e-05
  24    0.00017284610927551
  25    3.8236908569361e-05
  26    3.5624780587786e-05
  27    -0.00031125019488787
  28    1.6598559150992e-05
  29    -2.9405814588864e-05
  30    -2.7081529291232e-05
  31    1.4094675945935e-06
  32    -0.00013499262428485
  33    -2.4189768999383e-05
  34    9.7690215302062e-06
  35    -0.00031262236947605
  36    -1.1729501204926e-06
  37    7.4307547482853e-05
  38    -1.6575180340213e-05
  39    -9.5860398015835e-08
  40    4.902469816522e-06
  41    2.8938516348468e-05
  42    -2.1796454018886e-06
  43    0.00016084709694904
  44    0.00035982756070051
  45    -4.4287027208516e-05
  46    4.411232979859e-05
  47    6.1788785908338e-06
  48    1.7489981584415e-05
  49    0.00018471470664921
  50    -4.2719762651684e-05
  51    -3.3235950091184e-05
  52    8.6978069501256e-08
  53    -0.0030761682978964
  54    0.00077919801781222
  55    -0.00011884101599236
  56    0.00019904564276773
  57    -0.00061913205726456
  58    0.00013896695588744
  59    1.1048221110828e-05
  60    -0.00024559601762278
  61    -0.00037438713113891
  62    0.00060735589843643
  63    0.00071566490500335
  64    -0.00046849934699057
  65    0.00092703972141488
  66    0.0011076984362266
  67    -0.00010692594873398
  68    0.00012084082930853
  69    -0.00027160217421218
  70    8.8873677995636e-05
  71    0.00010116519084015
  72    -0.0030225598197968
  73    0.00079797069208196
  74    -9.6787812697034e-05
  75    -0.00059730857712989
  76    8.8093154473821e-05
 Sym= A
 Ene=               1
 Spin= Alpha
 Occup=    1.00000
   1    -0.00011136526944755
   2    -0.00063535114452301
   3    0.0024014424206429
   4    -0.001138577173553
   5    -2.6559862675541e-05
   6    -5.0962145731566e-05
   7    0.00085609346049164
   8    -1.4137321318398e-05
   9    -6.2409486578828e-05
  10    0.00020809891696644
  11    -3.8890767816992e-05
  12    -1.1793943733654e-05
  13    -0.00029227157064005
  14    -1.19617977419e-05
  15        1.002229816852
  16    -0.00083237485114051
  17    -0.011545385135606
  18    -0.0005697585601542
  19    -9.1589935554182e-05
  20    0.0023092051896725
  21    0.00084595481780921
  22    -1.6305154821549e-05
  23    0.0012773081537899
  24    8.6576562801533e-05
  25    3.7351982103302e-06
  26    2.2112456624697e-05
  27    -0.00011874190951058
  28    -2.244840199582e-05
  29    0.00013944551762934
  30    1.3839075765633e-05
  31    -0.00024227727939578
  32    0.0003756671279729
  33    -5.0947587602245e-06
  34    0.00093612068887352
  35    0.00047159690568821
  36    2.0932277742844e-06
  37    0.0014409837035491
  38    -0.00030488904496309
  39    -0.00015741689557463
  40    -2.4380774306193e-07
  41    -2.4782943120459e-05
  42    -1.6688132714191e-07
  43    -0.0031236409717608
  44    0.0007679380387211
  45     0.000120003294115
  46    -0.00055512994778195
  47    -0.00034777421278656
  48    -0.0030722249873033
  49    0.00078658868714684
  50    9.7970933308525e-05
  51    0.00051900696830322
  52    -0.00031797238946991
  53    0.00015178162384663
  54    0.0003567132859419
  55    4.4291288310454e-05
  56    -2.9314470005521e-05
  57    3.2235235861504e-05
  58    -2.9429236797399e-05
  59    -2.7035105523949e-05
  60    1.3518694165434e-06
  61    0.00013460026803703
  62    2.5195039369147e-05
  63    -8.5457411839366e-06
  64    0.00031139234793931
  65    4.9062422328095e-05
  66    5.5437107665519e-05
  67    -1.2583023098021e-05
  68    1.3848883150657e-06
  69    -7.6300136800372e-07
  70    3.135614045735e-05
  71    -1.7221088149547e-06
  72    1.4839653041861e-05
  73    0.00018239417753515
  74    4.2907848590814e-05
  75    2.5182778584474e-05
  76    -2.0912435964314e-05
 Sym= A
 Ene=               2
 Spin= Alpha
 Occup=    1.00000
   1    2.4229120809297e-05
   2    2.4908552323048e-05
   3    -0.0010067780778126
   4    -0.00012267065723111
   5    1.7178490756347e-05
   6    -7.7774849092476e-07
   7    -0.00043539886495643
   8    -0.0001037729184533
   9    -0.00021723683579643
  10    8.0493440669027e-05
  11    -1.5737320432212e-05
  12    1.6648828774321e-05
  13    -1.8453414390627e-05
  14    -1.2932060942834e-05
  15    -4.8320963115127e-05
  16    5.0029271222345e-05
  17    0.0031235738840398
  18    0.00024516461319951
  19    -3.1686872761346e-06
  20    0.00052011161245729
  21    -4.9397740107091e-05
  22    6.2194205083297e-05
  23    0.0012871402300171
  24     -1.1186615071e-05
  25    3.5768047981983e-06
  26    -3.0736804860497e-06
  27    -1.9050829057403e-06
  28    -1.0459420368234e-05
  29       1.0009648783969
  30    -0.0039107574070832
  31    -0.010578812586287
  32    -0.00091698067918759
  33    2.5381358140103e-05
  34    -0.0027067297638851
  35    7.1552113361593e-06
  36    3.6357621798954e-05
  37    0.00011519004396851
  38    -0.00015767746950672
  39    -9.2661460596595e-05
  40    -5.2990015172393e-07
  41    -9.8379048235119e-06
  42    -2.3643463082715e-06
  43    -0.00025639448853982
  44    -0.00017182753386664
  45    5.5945785665538e-06
  46    -2.2035137720607e-05
  47    -0.0001586570680455
  48    -0.000275420115699
  49    -0.00024975434577589
  50    1.2140294129094e-05
  51    2.0979459297294e-05
  52    -0.00016377972008647
  53    2.327662686327e-05
  54    0.00016651039358364
  55    3.7747991393014e-05
  56    2.2428767521687e-05
  57    2.5762824346582e-05
  58    -1.0882326715904e-06
  59    -2.0222845490468e-06
  60    6.8795538973042e-05
  61    1.8370170341824e-05
  62    2.5636524212231e-05
  63    1.6381653445772e-05
  64    -6.2477807101032e-05
  65    -4.2964696617808e-05
  66    -8.7141243533411e-06
  67    1.3028571036316e-05
  68    8.6560810894014e-07
  69    -4.9792489586148e-06
  70    -1.3072215838462e-05
  71    8.6902007374186e-06
  72    8.7676034555435e-05
  73    -0.00014835996238606
  74    -3.9575506248957e-05
  75    1.4190325848046e-05
  76    -1.1384025780217e-06
 Sym= A
 Ene=               3
 Spin= Alpha
 Occup=    1.00000
   1    -4.8299905391801e-05
   2    4.8627545754574e-05
   3     0.003122709949913
   4    -0.00024417298138157
   5    0.00033755184406488
   6    0.00039767883442002
   7    4.9834613868267e-05
   8    0.00077995729036725
   9    0.0010263837708781
  10    -6.1840819311712e-06
  11    3.9641767674495e-06
  12    -9.7936997989672e-06
  13    9.8406857531283e-07
  14    -1.038640146681e-05
  15    2.4255570630879e-05
  16    2.5164811520247e-05
  17    -0.0010066638553765
  18    0.00012264252877282
  19    -1.4999495316022e-05
  20    1.0397936792613e-05
  21    0.00043539902307749
  22    -6.0620468528115e-05
  23    -0.00023314427264644
  24    5.1408134900295e-05
  25    2.0312015091961e-05
  26    5.6753403839532e-05
  27    -3.5283271011342e-05
  28    1.2877350857674e-07
  29    -1.0920609292849e-06
  30    -2.0719229721707e-06
  31    6.8717320500088e-05
  32    -1.8314844350935e-05
  33    -9.0276672909989e-06
  34    2.9110918036731e-05
  35    6.2530350549251e-05
  36    2.7450981979364e-05
  37    -3.4229392084422e-05
  38    5.3844597021256e-06
  39    -6.2471088513694e-06
  40    5.5590527242836e-06
  41    -1.7482741640463e-05
  42    6.1027982710342e-06
  43    2.4469800882226e-05
  44    0.00016700408585196
  45    -3.7800583791329e-05
  46    -5.7760300755716e-07
  47    3.4188900791044e-05
  48    8.6797019550678e-05
  49    -0.00014877675695099
  50    3.9607237350899e-05
  51    -1.157624130232e-05
  52    8.219579200734e-06
  53    -0.00025808113302242
  54    -0.00017225208935114
  55    -5.6476220896148e-06
  56    -8.5000669435517e-05
  57    -0.00013583135593322
  58       1.0009648685794
  59    -0.0039116574826834
  60    -0.010579844240995
  61    0.00091853155421097
  62    -0.0017597449017718
  63    -0.0020578086607338
  64    -6.1155649411631e-06
  65    4.5865339745574e-05
  66    0.00011111270058365
  67    -5.6896647225547e-05
  68    7.2468839937345e-05
  69    -0.00013923116013036
  70    4.8369216568896e-05
  71    5.7721535396563e-05
  72    -0.00027689340161707
  73    -0.00025020664184487
  74    -1.217811859054e-05
  75    -0.00012147055691944
  76    -0.00011190042297164
 Sym= A
 Ene=               4
 Spin= Alpha
 Occup=    1.00000
   1    0.0010534876057938
   2     0.016866906932535
   3     0.049699515281888
   4     0.027223220805176
   5    -0.0052091063775479
   6    0.00074727651093041
   7     0.017311360616425
   8    -0.014204081903217
   9    -0.026113739569664
  10    -0.001806071365668
  11    0.00042694734371693
  12    0.0011257364234753
  13    0.00017127293765335
  14    -0.00047688984836497
  15    0.00097359624934587
  16    0.0020020749820937
  17    -0.0030364060774052
  18    0.0067231470341588
  19    0.0074636168748545
  20    -0.0013779197136017
  21     0.020823491179024
  22     0.028936050863921
  23    0.0095636640403881
  24    -0.011459276182671
  25     0.018837858125542
  26     0.026676230286309
  27    0.0092128639090453
  28    0.0064917069668126
  29    0.0010112598478548
  30    0.0030251921186833
  31    -0.0060019311366001
  32      0.41899279441012
  33      0.49907827843604
  34     -0.13715442368305
  35      0.29617880814051
  36      0.35216244408535
  37    -0.094347798446378
  38    0.0046129317501146
  39    -0.0071020985782273
  40    -0.0091588844481303
  41    -0.0022304447163761
  42    -0.0034494523226658
  43     0.016787404378462
  44     0.023877157384457
  45    -0.0012475804820615
  46    -0.00070224085165198
  47    0.00021996067912293
  48    -0.046442467714731
  49    -0.052238766369656
  50    -0.0010596464803529
  51    -0.0011680733966281
  52    -0.0016976413193666
  53    -0.010144160613919
  54    -0.022128891660981
  55    0.0012068677560104
  56    0.0011068880772347
  57    -0.00060404976466761
  58    -0.00091140940066094
  59    0.00084198392201518
  60     0.013687631539947
  61    0.00088735104494756
  62    -0.0040475912524347
  63    0.0008175684114992
  64    -0.00091945554260856
  65    -0.0036932101858907
  66    -0.0018339663551771
  67    -2.3081882172314e-06
  68    -0.0006028748734328
  69    0.00034229475022732
  70    -0.00014176880684946
  71    9.3416137828044e-05
  72    0.0026556684709566
  73     -0.01751844767211
  74    0.00074387659736603
  75    -0.00022683974897625
  76    0.00092364096721388
 Sym= A
 Ene=               5
 Spin= Alpha
 Occup=    1.00000
   1    0.00076674285091497
   2      0.01808768085466
   3      0.05650366092586
   4     0.030235504566256
   5    0.0017788427404572
   6    0.0038661705671425
   7     0.042521044937004
   8      0.01636864443446
   9    -0.015406311490033
  10    -0.0013111994576632
  11    0.00086876638504267
  12    0.0002243194783691
  13    0.00019829376412538
  14    0.0015420071404193
  15     0.001469813939029
  16    0.0018729246879683
  17    -0.020519697195297
  18     0.010092777825926
  19    -0.0067388188334244
  20    -0.0025187169023399
  21     0.038662256704412
  22    -0.025028419263449
  23     0.011136163671199
  24    -0.012974355034316
  25     0.021773776454053
  26    -0.023822661682258
  27    0.0096021496788537
  28    -0.0050832733805021
  29    0.0007310077061364
  30    -0.0057664306116929
  31    -0.016558845933671
  32      0.47445802661773
  33     -0.44234312022292
  34     -0.15504556725748
  35      0.33455212648388
  36     -0.31132785750936
  37     -0.10603383218623
  38     0.004814737165385
  39    -0.0081527096188001
  40    0.0082624839829991
  41    -0.0029604564397321
  42    0.0025888879899584
  43    -0.043966647469818
  44    -0.052399474456173
  45    -0.0012365507177792
  46    0.0013107149363006
  47    -0.0016247607876386
  48     0.012108444569412
  49     0.015319769368268
  50    -0.0012802207422758
  51    0.00062971511129189
  52    -0.00029627043901555
  53    -0.0090518041087647
  54    -0.017218874885698
  55    0.0019133633665813
  56    0.00031176598908306
  57    -0.00039369625959105
  58    0.0015573320980748
  59    0.0073509688859341
  60    0.00061168001775446
  61    0.0098204189416567
  62    -0.0024029010676882
  63    0.0042952276572509
  64    -0.0024138362678665
  65    -0.0042304897356507
  66    0.0016333749148438
  67    0.00046780793018215
  68    -0.0010760306738553
  69    0.00040482152041522
  70    -0.0010490443274458
  71    0.00012094500332947
  72    0.0035062184460352
  73    0.0098220372369551
  74    0.00058139790776874
  75    0.00055986248715781
  76    0.0014140702832912
 Sym= A
 Ene=               6
 Spin= Alpha
 Occup=    1.00000
   1    -0.0014673012089617
   2    -0.0028670456171413
   3      0.01983742666267
   4     0.010800578144435
   5    -0.0045111923948669
   6    0.0083865926903294
   7      0.03897150886227
   8    -0.026595930079513
   9    0.0081634562642357
  10     0.028506631053487
  11     0.013419750279822
  12    0.0023707179215594
  13    -0.00069045591108439
  14     0.017933164568514
  15    -0.00075200597305488
  16    -0.017814116069829
  17    -0.056482425008833
  18     0.030399767186184
  19    -0.0015611369764942
  20    -0.0041437033949828
  21     0.042551416208312
  22     0.022281866211341
  23    0.0014373482757567
  24    0.0003507381932364
  25    0.0015492468618947
  26    0.0010897960871891
  27    -0.00078093105595114
  28    -0.00057415802638352
  29    -0.0015503360236368
  30    -0.0074175686123386
  31    -0.0008574373360129
  32    0.0098935736372736
  33    -0.0045802055774017
  34    -0.0016137117362222
  35    -0.0023205138719505
  36    -0.004234540782301
  37    0.0015823960923723
  38    -0.000896754702195
  39    -0.00074681408169581
  40    0.0001935129653496
  41    0.00080137153943522
  42    -0.00078451002263678
  43    0.0096013369266262
  44     0.017446827415155
  45    0.0018929178553048
  46    0.00053054331774819
  47    0.0001135765803462
  48    -0.0035020239283853
  49    -0.0096304416786273
  50    0.0005855323189097
  51    -0.00048478833411342
  52    -0.0014523633808107
  53     0.041198717973622
  54      0.05133654429738
  55    -0.0013382289192108
  56    0.0021170891590917
  57    0.00023996604352631
  58    -0.00073038796229324
  59    0.0060504768975969
  60     0.016911061108729
  61        0.476862935827
  62     -0.23673864947858
  63       0.4014554825324
  64      0.33620382033104
  65     -0.16851503625939
  66      0.28006909091303
  67    -0.0099357624408421
  68    -0.0046295645592622
  69    -0.0012328920791027
  70    3.7767965478904e-05
  71    -0.0072476757133168
  72    -0.011383838570912
  73    -0.014716292830906
  74    -0.0012462412151882
  75    0.00066090308224133
  76    -0.00011371439949631
 Sym= A
 Ene=               7
 Spin= Alpha
 Occup=    1.00000
   1    -0.00097648292768273
   2    -0.0029384203727348
   3    0.0023107039069847
   4    0.0072282339457653
   5     0.009041301847576
   6    -0.0046302509630068
   7     0.020857271924097
   8     0.017024480027555
   9    -0.026242211591396
  10    -0.015153385245812
  11     0.018523361341282
  12    0.0099357073218124
  13    -0.024452037439298
  14    0.0068971060104084
  15    -0.001037978753949
  16     -0.01621961143527
  17    -0.049001800083799
  18     0.027225949364563
  19    -0.0051017682533591
  20    0.0023854446537419
  21     0.017140797495734
  22    0.0055530605153248
  23     0.028863075161935
  24    -0.00019976264592758
  25    4.8241971701113e-05
  26    0.0016903814935375
  27    -0.0013653660573499
  28    0.00050219008320135
  29    0.00090821939909505
  30    -0.00082404131379033
  31    -0.013610862468754
  32    0.00079974264662617
  33    -0.0035639110723374
  34    0.0020144578158167
  35    -0.00097432517733469
  36    -0.0015706577315281
  37    0.0038000873040173
  38    -0.0003322510362897
  39    -0.00039787157611585
  40    0.00014051766830602
  41    -6.2594854231789e-05
  42    -0.00045511503795317
  43      0.01114030198287
  44     0.022436366440612
  45    0.0011551787922696
  46    0.0012877164333363
  47    -0.00021740553104414
  48    -0.0028071678089725
  49     0.017192175293171
  50    0.00074898271668107
  51    -0.00079868241830514
  52    -0.00055006550254105
  53    -0.016256618865921
  54    -0.023671235306695
  55    -0.0011942553450241
  56    -0.00064299748528595
  57    0.00029607854011591
  58    -0.0010017034747536
  59    -0.0026869938433719
  60    0.0063238298893033
  61      0.41644491776126
  62      0.47137952908533
  63     -0.21822114582729
  64      0.29435182005909
  65      0.33094119394631
  66     -0.15574289100019
  67    0.0053415746433856
  68    -0.0076458625511206
  69    -0.0044239219391073
  70    0.0079507414663256
  71    -0.0018846850417246
  72     0.043722553677337
  73     0.051342178726235
  74    -0.0011504499924155
  75    2.1693340531082e-05
  76    0.0020888785986534
 Sym= A
 Ene=               8
 Spin= Alpha
 Occup=    1.00000
   1    -0.0027137413919072
   2     -0.15634989023931
   3     0.006537650517523
   4     0.096550123149844
   5      -0.1862364445329
   6     -0.21973533069074
   7     0.029413668992515
   8    -0.032967937156031
   9    -0.039265221365215
  10    -0.016348684650507
  11     0.021348925573761
  12    -0.045432077766636
  13     0.013709085156759
  14     0.018916680025451
  15    -0.001023678309842
  16    0.0097346540056434
  17    -0.0066146954571848
  18    -0.026231302100818
  19    0.0018043897339001
  20    -0.0038779341751018
  21    -0.0093922732421006
  22    0.00045774688283205
  23    0.00051350741789519
  24    0.0040973383454598
  25    0.0088259634916474
  26    0.0013494882708564
  27    -0.003103388363438
  28    0.0071215324530023
  29    0.00012091449069749
  30    0.0033913525718282
  31    0.0044204702418617
  32    -0.0043804789603831
  33    -3.0472405915228e-05
  34    -0.0064957087612384
  35    -0.0018174279599231
  36    0.00083375807802468
  37    -0.0034688234690944
  38    -0.00013156928395454
  39    0.0003663864199428
  40    3.4054186178243e-05
  41    -0.00020459748204515
  42    0.00025985219834379
  43     -0.01821347379507
  44    -0.016377594031606
  45    -0.00030347300557462
  46    0.00025681148527705
  47    0.00090569787853853
  48    0.0052797403474684
  49    0.0022504957717256
  50    -0.001446856609256
  51    -0.00082649426955176
  52    0.00016047653932827
  53    0.0082780585226621
  54     0.020538102068219
  55     0.001382055756485
  56    -0.0048642078485774
  57    -0.0093135278748476
  58    0.0040667111516129
  59     -0.15013405426494
  60     -0.11576700372091
  61      -0.1552464837638
  62      0.30687746837515
  63      0.36822770511716
  64     -0.10306244162186
  65       0.2010366486959
  66      0.24160074632372
  67    -0.0065497614615333
  68    0.0083929759499715
  69    -0.016412139450685
  70    0.0049722633401653
  71    0.0069077055529754
  72     0.010176746514566
  73      0.02193882438132
  74    0.0013040424440638
  75    -0.0081456157383618
  76    -0.0063651563297363
 Sym= A
 Ene=               9
 Spin= Alpha
 Occup=    1.00000
   1    -0.0010727563248965
   2    0.0099825664823461
   3    -0.0064717278407754
   4     0.025645952337382
   5    -0.0027889509577084
   6    -0.0033051882085331
   7    0.0091975076767767
   8    0.00036139039367498
   9    0.00023422798050294
  10    0.0038655390738006
  11    -0.011353122341634
  12    0.0016977933751665
  13    -0.0031984004507812
  14    -0.00024853987552818
  15    -0.0027387765234899
  16     -0.15410331400143
  17    0.0077966716146135
  18    -0.094926685544458
  19     0.001594051095098
  20     -0.28983067807857
  21    -0.028720723103473
  22    0.0001313331041916
  23    -0.052023296950513
  24    -0.049941273375001
  25    -0.028488919365824
  26    0.0006988823185209
  27    -0.0057432817905351
  28    0.00071499905132839
  29    0.0040422048808247
  30     -0.15028356802294
  31     -0.11586810621596
  32      0.15582159410159
  33    0.0016669424793053
  34      0.47932974516777
  35      0.10331905857703
  36    0.0013169513040492
  37      0.31437064340062
  38    -0.018228754690973
  39    -0.010894849993892
  40    -0.00029075837604354
  41    -0.0018069191174191
  42    -0.00010607876641449
  43     0.010488075477579
  44     0.021109809396969
  45    -0.001431042936376
  46    -0.002045028790784
  47     -0.01019897482048
  48     0.012470975278368
  49     0.022344596897276
  50    -0.0013569233709481
  51    0.0019144014213746
  52    -0.010041658530329
  53    -0.016470053260929
  54     -0.01572702490855
  55    0.00035356746226369
  56    0.00034455225978091
  57    0.00097142653183739
  58    0.00012066504288164
  59    0.0033852622918508
  60     0.004429406532042
  61     0.004427697228732
  62    -0.0042473311998573
  63    -0.0048838023935254
  64    0.0019105196083167
  65    -0.0030141054570704
  66    -0.001959890955118
  67    7.7474168301981e-05
  68    -0.00044528276368384
  69    -0.00021910674276075
  70    -9.3531113423492e-05
  71    -2.5359220018367e-05
  72    0.0045099874087283
  73     0.001990391101134
  74    0.0013934000290001
  75    0.00071376483496104
  76    -0.00043779252795014
 Sym= A
 Ene=              10
 Spin= Alpha
 Occup=    1.00000
   1    -0.0012765787409355
   2    -0.0019903467719509
   3     0.010980931652364
   4    0.0033030796012103
   5    -0.00083848932503128
   6    -0.0030991676536417
   7     0.011084506164066
   8    0.00011527633324739
   9    0.0013234886061791
  10    -0.0001896886656114
  11    -0.0035377839336915
  12    0.00061209368381835
  13    -0.00040857474473958
  14    -0.00023906158089584
  15    -0.0070926123480686
  16    -0.036995662460931
  17    -0.027602472811311
  18    -0.017332449871464
  19    0.00027448799792171
  20    -0.051287927113468
  21    -0.00029351845587482
  22    -0.00020335881824262
  23    -0.0048891800139162
  24    0.0020186849139927
  25    0.0016970756113744
  26    -5.915920797863e-05
  27    0.00018954837907872
  28    3.6395996537479e-05
  29    0.0062162311165108
  30      0.47004442606637
  31      0.55237395260396
  32     0.079159525430844
  33    -0.0058246875099117
  34       0.2268418917313
  35     0.056079082471129
  36    -0.0047398172230362
  37      0.15896876780997
  38    -0.0042656921010846
  39    -0.0024607646866886
  40    -3.2094218994761e-05
  41    -0.00039317648954633
  42    7.8720540950125e-05
  43    -0.00031482436502317
  44     0.012297356827967
  45    -0.0012733874687837
  46    0.00081479283970053
  47    -0.0021952267741685
  48     0.001014665466999
  49     0.013262465051805
  50    -0.0012420655637378
  51    -0.00086984605734513
  52    -0.0020775144284373
  53    -0.0034453775999927
  54    -0.0017878764918772
  55    0.0006143660121663
  56    -0.0003790329783822
  57    0.00057780751336811
  58    -2.7674996080319e-05
  59    7.1948452530587e-05
  60    -0.00032503532307968
  61    -0.0010552820638899
  62    -0.00075271829372984
  63    -0.0029716501884586
  64    -0.00064935451747249
  65    -0.00065537435040485
  66    -0.00031305662754401
  67    -4.3452180218231e-05
  68    0.00011422463911703
  69    -0.00011782998461004
  70    6.4598591699274e-05
  71    -1.9859466389845e-05
  72    -0.00048250179807492
  73     0.002167538022938
  74    -0.00021870074386905
  75    3.698532440476e-05
  76    -0.00029802461377195
 Sym= A
 Ene=              11
 Spin= Alpha
 Occup=    1.00000
   1    -0.007090160983634
   2    -0.037072852942228
   3    -0.027650158496017
   4     0.017394549332884
   5    -0.033093486524505