[Molden Format]
made by pyscf v[2.0.1]
[Atoms] (AU)
C   1   6     0.00000000000000     0.00000000000000     0.00000000000000
C   2   6     2.85207482267819     0.00000000000000     0.00000000000000
F   3   9     3.65415199667903     0.00000000000000     2.45977207315200
H   4   1     3.58561868306314    -1.67891019462705    -0.93677358840720
H   5   1     3.58561868306314     1.67891019462705    -0.93677358840720
H   6   1    -0.73354386038494    -1.21408158844390    -1.49073474976653
F   7   9    -0.80207717400084     2.42240260828301    -0.42713493797885
H   8   1    -0.73354386038494    -0.63100219691706     1.81607280279338
[GTO]
1 0
 s    8 1.00
                  6665  0.00069158396281299
                  1000  0.0053257961529341
                   228   0.027060721042034
                 64.71    0.10165684614077
                 21.06     0.2745748236174
                 7.495    0.44829431892377
                 2.797    0.28490261071525
                0.5215   0.015194859206082
 s    8 1.00
                  6665  -0.00029326965268655
                  1000  -0.0023180354739745
                   228  -0.011499786038565
                 64.71  -0.046826727009787
                 21.06   -0.12846616875047
                 7.495   -0.30126627246289
                 2.797   -0.25563070233011
                0.5215      1.093793361012
 s    1 1.00
                0.1596                   1
 p    3 1.00
                 9.439   0.056979251590039
                 2.002    0.31320721150073
                0.5456    0.76037674173753
 p    1 1.00
                0.1517                   1
 d    1 1.00
                  0.55                   1

2 0
 s    8 1.00
                  6665  0.00069158396281299
                  1000  0.0053257961529341
                   228   0.027060721042034
                 64.71    0.10165684614077
                 21.06     0.2745748236174
                 7.495    0.44829431892377
                 2.797    0.28490261071525
                0.5215   0.015194859206082
 s    8 1.00
                  6665  -0.00029326965268655
                  1000  -0.0023180354739745
                   228  -0.011499786038565
                 64.71  -0.046826727009787
                 21.06   -0.12846616875047
                 7.495   -0.30126627246289
                 2.797   -0.25563070233011
                0.5215      1.093793361012
 s    1 1.00
                0.1596                   1
 p    3 1.00
                 9.439   0.056979251590039
                 2.002    0.31320721150073
                0.5456    0.76037674173753
 p    1 1.00
                0.1517                   1
 d    1 1.00
                  0.55                   1

3 0
 s    8 1.00
                 14710  0.00072067370873197
                  2207  0.0055504869689163
                 502.8   0.028254207662589
                 142.6    0.10639582836653
                 46.47    0.28668420124307
                  16.7    0.44843796582416
                 6.356    0.26464118141135
                 1.316   0.015326060993048
 s    8 1.00
                 14710  -0.00032119389049893
                  2207  -0.0025461915683188
                 502.8  -0.012643359507821
                 142.6   -0.05195749170489
                 46.47   -0.14344713812646
                  16.7   -0.33243762329603
                 6.356   -0.21865906750347
                 1.316     1.0955904138622
 s    1 1.00
                0.3897                   1
 p    3 1.00
                 22.67   0.064834021493887
                 4.977    0.34053535983101
                 1.347    0.73464640679382
 p    1 1.00
                0.3471                   1
 d    1 1.00
                  1.64                   1

4 0
 s    3 1.00
                 13.01   0.033498726389998
                 1.962    0.23480080117413
                0.4446     0.8136829578829
 s    1 1.00
                 0.122                   1
 p    1 1.00
                 0.727                   1

5 0
 s    3 1.00
                 13.01   0.033498726389998
                 1.962    0.23480080117413
                0.4446     0.8136829578829
 s    1 1.00
                 0.122                   1
 p    1 1.00
                 0.727                   1

6 0
 s    3 1.00
                 13.01   0.033498726389998
                 1.962    0.23480080117413
                0.4446     0.8136829578829
 s    1 1.00
                 0.122                   1
 p    1 1.00
                 0.727                   1

7 0
 s    8 1.00
                 14710  0.00072067370873197
                  2207  0.0055504869689163
                 502.8   0.028254207662589
                 142.6    0.10639582836653
                 46.47    0.28668420124307
                  16.7    0.44843796582416
                 6.356    0.26464118141135
                 1.316   0.015326060993048
 s    8 1.00
                 14710  -0.00032119389049893
                  2207  -0.0025461915683188
                 502.8  -0.012643359507821
                 142.6   -0.05195749170489
                 46.47   -0.14344713812646
                  16.7   -0.33243762329603
                 6.356   -0.21865906750347
                 1.316     1.0955904138622
 s    1 1.00
                0.3897                   1
 p    3 1.00
                 22.67   0.064834021493887
                 4.977    0.34053535983101
                 1.347    0.73464640679382
 p    1 1.00
                0.3471                   1
 d    1 1.00
                  1.64                   1

8 0
 s    3 1.00
                 13.01   0.033498726389998
                 1.962    0.23480080117413
                0.4446     0.8136829578829
 s    1 1.00
                 0.122                   1
 p    1 1.00
                 0.727                   1

[5d]
[7f]
[9g]

[MO]
 Sym= A
 Ene=               0
 Spin= Alpha
 Occup=    1.00000
   1       1.0022399386056
   2    -0.00078985233311332
   3    -0.011755576117806
   4    0.00050770089144185
   5    0.0022803024941471
   6    -0.0005455811095451
   7    -0.00088823601163064
   8     0.001312805267153
   9    -0.00026158524661973
  10    5.6735965222302e-05
  11    1.4827541479947e-05
  12    1.4419106582981e-05
  13    -0.00015328838921718
  14    3.5423657757036e-06
  15    -0.00011914978871989
  16    -0.00066872940516773
  17    0.0024331145588625
  18     0.001151482794116
  19    -1.8576466221336e-05
  20    -9.7640707017807e-05
  21    -0.0010207099003277
  22    -0.00028989537137889
  23    0.00013877911229415
  24    0.00016285074018008
  25    -3.4212669518846e-06
  26    -5.7417859937855e-06
  27    -0.00032072862833499
  28    3.7761582690117e-05
  29    1.9402563097362e-06
  30    7.9766788080729e-05
  31    -4.0656026545017e-05
  32    -0.00025726406207832
  33    -2.496124865737e-05
  34    -2.3751584033775e-05
  35    -0.00029784665092352
  36    2.6267076534094e-05
  37    1.2504529390804e-05
  38    -2.1765623546629e-06
  39    -2.9049173509537e-06
  40    2.5235505500322e-06
  41    1.9635184426504e-05
  42    -4.8693727416266e-06
  43    0.00015251215974901
  44    0.00026325606849391
  45    -2.2614717688971e-05
  46    4.8651352309519e-05
  47    2.1910301886852e-06
  48    -5.0173831277589e-05
  49    0.00038607995447989
  50    -7.5492540501962e-05
  51    -2.0704744610408e-05
  52    -1.2010685679881e-05
  53    -0.0030546993203636
  54    0.00080507099747879
  55    -0.00011706729469248
  56    -0.00044186890736249
  57    -0.00047359782327928
  58    0.00015163162482892
  59    4.1258750831992e-05
  60    -0.00029277377482848
  61    -0.00036044649023504
  62    0.0009147401063955
  63    -0.00015908248238335
  64    -0.00046972701757334
  65    0.0014237899828238
  66    -0.0002378065149511
  67    0.00016161167641407
  68    -2.8055842985544e-05
  69    9.4077387072718e-05
  70    0.0002444523875418
  71    0.00015805128368759
  72    -0.0030259758062681
  73    0.00085897230669297
  74    -8.896854418471e-05
  75    -0.00023281976585239
  76    0.00055536665903039
 Sym= A
 Ene=               1
 Spin= Alpha
 Occup=    1.00000
   1    -0.00011840111655263
   2    -0.00067107125905234
   3    0.0024346368723759
   4    -0.0011451378298934
   5    -9.442273238867e-05
   6    6.8482467992506e-06
   7    0.0010241771310875
   8    8.8086995792412e-05
   9    -0.0003081067436419
  10    0.0001975582172492
  11    -3.6791184477054e-05
  12    8.4327581569238e-07
  13    -0.00030220495905193
  14    -3.6246020632224e-06
  15        1.002240165873
  16    -0.00083900546901485
  17    -0.011784204902535
  18    -0.00053672771733736
  19    -0.00014666951780147
  20    0.0023733786652785
  21    0.00087709300926066
  22    -3.1983674164501e-05
  23    0.0013522402848163
  24    0.00010002349800005
  25    5.3177386600331e-08
  26    2.3183367694361e-05
  27    -0.00012688179613764
  28    -1.5533263910402e-05
  29    0.00015205779128398
  30    4.3849811642666e-05
  31    -0.00028945644348036
  32    0.00036172617628838
  33    2.3978783393479e-06
  34    0.0009260403579094
  35    0.00047254912027055
  36    1.3496435915432e-05
  37    0.0014401582079929
  38    -0.00030743494488473
  39    -0.00016035580706283
  40    -1.1867370575889e-06
  41    -2.5744328369777e-05
  42    1.9872735178484e-07
  43    -0.0030966879236178
  44    0.00079593328562149
  45    0.00011804993110604
  46    -0.00054746355431991
  47    -0.00035421592204207
  48    -0.0030757470599818
  49    0.00084725733840756
  50    9.0118208744462e-05
  51    0.00051121095535631
  52    -0.0003272911620492
  53    0.00014201009321497
  54    0.00025952671979168
  55    2.2494793519569e-05
  56    1.0046991413058e-05
  57    4.6796691311726e-05
  58    2.0302102120069e-06
  59    8.0824427792009e-05
  60    -3.9518420517968e-05
  61    0.00025825549881476
  62    -2.8695837052115e-05
  63    -2.1176070122915e-05
  64    0.00029816137732674
  65    1.6242893263865e-05
  66    2.2692534254798e-05
  67    -1.6182915678979e-05
  68    4.3718900966356e-06
  69    -4.2538829716931e-07
  70    1.1571695399812e-05
  71    3.5910426556396e-06
  72    -5.0485704297738e-05
  73    0.00038314495436889
  74    7.5751796699226e-05
  75    -1.5308737413242e-05
  76    -1.8100015159734e-05
 Sym= A
 Ene=               2
 Spin= Alpha
 Occup=    1.00000
   1    4.4002680637949e-05
   2    6.230215513341e-05
   3    -0.0010767770552746
   4    -0.00013454078595674
   5    -1.5777401584027e-06
   6    3.4432565274189e-05
   7    -0.00042792189093392
   8    3.1845751068477e-05
   9    -0.00025801205047333
  10    9.9663292174706e-05
  11    -3.4783932780988e-05
  12    -1.8060023971553e-05
  13    -5.9627131723287e-06
  14    3.177833408557e-06
  15    -4.8563370598226e-05
  16    3.8947801528228e-05
  17    0.0030960708566868
  18    0.00023059169199983
  19    -3.0364323534554e-06
  20    0.00049813868024952
  21    -4.9463977064617e-05
  22    -4.6443107829093e-06
  23    0.0012424969665575
  24    -9.5077920503838e-06
  25    -1.3041836388947e-05
  26    -5.9071308851355e-06
  27    -1.0958806823472e-05
  28    3.3526628627011e-06
  29       1.0009677885944
  30    -0.0036985616625269
  31     -0.01030876121237
  32    -0.0010118205783064
  33    -7.5975376998624e-05
  34    -0.0025510649270633
  35    -5.9404615397381e-05
  36    -4.7842595948159e-05
  37    0.00017542073291865
  38    -0.00015951168398632
  39    -8.4467486780479e-05
  40    3.073744165506e-06
  41    -6.9070927853049e-06
  42    9.4590653414106e-07
  43    -0.00026629448368804
  44    -0.00022543815471695
  45    8.6300387346073e-06
  46    -2.541705594034e-05
  47    -0.00016038947154404
  48    -0.00026593737182414
  49    -0.00019606472255567
  50    8.9462571617067e-06
  51    2.6483960469201e-05
  52    -0.00016162528794006
  53    5.8054840213266e-05
  54    8.6455497551125e-05
  55    2.6809678122101e-05
  56    -2.1332070319043e-05
  57    4.5000714917121e-05
  58    1.0440683398443e-05
  59    2.5949464776047e-05
  60    3.4581153960138e-05
  61    3.0614295773477e-05
  62    -8.4959897382992e-06
  63    5.0127382556296e-06
  64    -2.5182099610731e-05
  65    -2.2912861090405e-05
  66    3.2607776319347e-06
  67    2.2847774231734e-06
  68    -4.9676307790206e-06
  69    -8.8661520990442e-06
  70    -1.0732638681854e-05
  71    -5.105652191743e-07
  72    3.4676242893344e-05
  73    9.6286867683851e-06
  74    -5.6675186835875e-05
  75    -1.1166661888366e-05
  76    -1.9242912479626e-07
 Sym= A
 Ene=               3
 Spin= Alpha
 Occup=    1.00000
   1    -4.8551639527142e-05
   2    3.7186054572156e-05
   3    0.0030949996599384
   4    -0.00022909265513811
   5    0.00049167089406095
   6    -9.0107402117368e-05
   7    5.0216720118558e-05
   8    0.0012233817596404
   9    -0.00022054076055098
  10    1.512753793129e-05
  11    -5.5455662819083e-06
  12    -8.6759506847502e-07
  13    3.1861048848727e-06
  14    1.2216939216412e-05
  15    4.4029046639874e-05
  16    6.1399642415204e-05
  17    -0.0010774520095343
  18    0.00013373760129048
  19    3.2279298844975e-05
  20    -6.8009856085656e-06
  21    0.00042757134077661
  22    -0.00024903200115046
  23    7.651864701866e-05
  24    -3.4919880228827e-05
  25    -9.1094662556166e-06
  26    -4.5399702174896e-05
  27    -8.367694036114e-05
  28    3.360480828365e-05
  29    1.0453992120688e-05
  30    2.6058155317068e-05
  31    3.4692688611086e-05
  32    -3.0635900947628e-05
  33    3.5481896769855e-06
  34    -9.3835134399489e-06
  35    2.5228149979557e-05
  36    -6.3180460815231e-07
  37    -2.3259925521612e-05
  38    1.0588980627516e-05
  39    -3.5134930219588e-07
  40    -7.1520998998264e-06
  41    -5.9294001651147e-06
  42    4.9832217625602e-06
  43    5.8145254974836e-05
  44    8.6730306826025e-05
  45    -2.6834004425976e-05
  46    4.0553334109001e-05
  47    -2.8808552844718e-05
  48    3.2596916238238e-05
  49    8.9115784939267e-06
  50    5.6708279844304e-05
  51    -1.9869640812943e-06
  52    -1.1029435508925e-05
  53    -0.00026792997713307
  54    -0.00022573316405282
  55    -8.662009274208e-06
  56    -0.00016242923607497
  57    2.6497180507843e-06
  58       1.0009677997943
  59    -0.0036979776100658
  60    -0.010308047945783
  61    0.0010146883485605
  62    -0.0025252033219748
  63    0.00036889583684279
  64    6.1340552923864e-05
  65    0.00016462237427476
  66    -7.7032792053794e-05
  67    7.7431780860804e-05
  68    -1.5582581109261e-05
  69    5.1315853321862e-05
  70    0.00012993821858687
  71    8.2951989631094e-05
  72    -0.00026818424368416
  73    -0.00019672765714703
  74    -9.0025222091894e-06
  75    -0.00015458823438624
  76    5.4351905625848e-05
 Sym= A
 Ene=               4
 Spin= Alpha
 Occup=    1.00000
   1    -0.0015442573969719
   2    -0.015247969719794
   3     -0.03069619783453
   4    -0.018702449414075
   5    -0.0017769385315548
   6    -0.0032044091232512
   7    -0.0071004737151484
   8    0.0040878882413909
   9     0.020475433138634
  10    0.00083520959216595
  11    -0.00043312519578841
  12    0.00083501301140091
  13    -0.00057897536371092
  14    -0.0013276141296693
  15    -0.00038720616115984
  16    -0.0014320890526529
  17    -0.0071701303970463
  18    -0.004268422829833
  19    0.0074674834479434
  20    0.0015771302240158
  21    -0.014902372546737
  22     0.028241825161853
  23    -0.0081733848041723
  24    0.0084447605671114
  25    -0.013283750745869
  26     0.030707722964242
  27    -0.0066741472135793
  28    0.0076437934789105
  29    -0.00064095714556767
  30    0.0019256078621765
  31    0.0099111651768636
  32     -0.30941846337379
  33      0.58112338143537
  34      0.10034883073102
  35     -0.21904458268106
  36      0.41142759006499
  37     0.069204346448939
  38    -0.0031874303209916
  39    0.0050907095450664
  40    -0.010512379339307
  41     0.001993414912979
  42    -0.0038793009716552
  43     0.049075059284375
  44     0.054699245983103
  45     0.000563621736105
  46    -0.0010776270924857
  47    0.0018400962361749
  48    -0.026666508849937
  49    -0.029707283746248
  50    0.0008338282974822
  51    -0.00074894325105014
  52    -0.00046576361533165
  53     0.007871431056755
  54     0.022858078836802
  55    5.7560811588899e-05
  56    0.00095137248721484
  57    0.00065824557474055
  58    0.00053847183102078
  59    0.0020657515170412
  60     0.001157951562656
  61     0.002492774056803
  62    -0.0018314339257545
  63    -0.0021207790544735
  64     0.000419051677806
  65    -0.0021212146090608
  66    -0.0030813124693589
  67    0.0001652499856368
  68    4.1633962684442e-05
  69    0.00017609221886819
  70    -0.00021162342607549
  71    0.00044155927792494
  72    -0.0073682260510735
  73    -0.0038925726619561
  74    0.00029740550995348
  75    0.0001505099431666
  76    0.0012683780873057
 Sym= A
 Ene=               5
 Spin= Alpha
 Occup=    1.00000
   1    -0.0003422268929584
   2    -0.0020052082153986
   3    -0.0077212885767766
   4     0.004456046529841
   5    0.0039949088250513
   6    0.0099911358550423
   7     0.014237116638455
   8    -0.0025178919069503
   9     0.030661975242243
  10    -0.0075580183837829
  11    -0.0099222951328689
  12     0.027785692656841
  13    -0.015377894384482
  14      0.01106161498473
  15    -0.0015291248003684
  16    -0.014171993879155
  17    -0.028335413051912
  18     0.018089425131467
  19    -0.0037359622732942
  20    -0.0014305981732052
  21    0.0066849831141838
  22     0.020555456244954
  23    0.00013482198385221
  24    -0.00015278451772065
  25    0.0010957734212568
  26    0.00065744660336886
  27    -0.0011507169888326
  28    0.00057252860791989
  29    0.00053387055477591
  30    0.0019334769921057
  31    0.00085819975036018
  32    -0.0023074740463634
  33    -0.0024016004694119
  34    -0.0011817549301177
  35    -0.00021525692961026
  36    -0.0033226971075114
  37    -0.001288861332688
  38    5.0887789461369e-05
  39    -0.00041633588697633
  40    0.00015319006347608
  41    -0.00027157534833714
  42    -0.00011703287680984
  43    0.0084287289067406
  44     0.022739024999433
  45    -0.00015501643962323
  46    0.00084525237905962
  47    0.00082076014056343
  48    -0.007119658797542
  49    -0.0046355065638869
  50    -0.00019080685988834
  51    0.0012151791855312
  52    -4.9204673578519e-05
  53     0.046180300567194
  54     0.053698298382235
  55    -0.00063500281564782
  56     0.001502393542365
  57    -0.001516585643246
  58    -0.00060968865565852
  59    0.0019060920914991
  60     0.009633566632854
  61      0.29588838736549
  62      0.19633720157105
  63      0.56317145249576
  64      0.20943414088453
  65      0.13720454208608
  66       0.3988431879525
  67    0.0029420465309789
  68    0.0047308313155304
  69    -0.0094748094353231
  70     0.005372818394318
  71    -0.0041179021471559
  72    -0.026185904009498
  73    -0.030172814239925
  74    -0.00073464801062711
  75    -0.00056430818633828
  76    -0.00069652144328253
 Sym= A
 Ene=               6
 Spin= Alpha
 Occup=    1.00000
   1    -8.1552871653802e-05
   2      0.02331633537011
   3     0.082413032092933
   4     0.032792378485529
   5    -0.0023482964989493
   6     0.012014545590624
   7     0.020295567181938
   8    -0.011597339733113
   9    0.00067941419255911
  10    -0.0011615259637744
  11    0.00078757937102452
  12    3.356279782322e-06
  13    -0.00014749021875243
  14    -0.00055330785000854
  15    0.0018375605321673
  16    0.0037241296429915
  17    -0.0052982511871442
  18    0.0092590210387771
  19    0.0038906160125136
  20    -0.00065480910404455
  21     0.031497930390217
  22      0.01721151972726
  23    0.0068396769665625
  24    -0.015509254659344
  25     0.024268423551652
  26     0.017066262660809
  27     0.011841403642532
  28    0.0040094551438989
  29    0.0012089456081604
  30    -0.015627016913232
  31    -0.028788094083282
  32      0.55107159521934
  33      0.32556504810331
  34     -0.18151747240739
  35       0.3907531824548
  36       0.2304246079686
  37     -0.12616959993454
  38    0.0058428436089684
  39    -0.0090172268655318
  40    -0.0058236904004035
  41    -0.003235796259254
  42    -0.0023015253671816
  43    0.0021027908359967
  44    0.0039966900968351
  45    -0.0014924029296999
  46    -0.00042324167911979
  47    2.7962831529166e-07
  48    -0.039555775801701
  49    -0.043892449974617
  50    -0.0013870302207217
  51    -0.00067447601889021
  52    -0.0013326267218365
  53    -0.013580453053711
  54    -0.018110373322361
  55    0.0029647391127491
  56    -0.0011007924080335
  57    -0.00021427754647921
  58    9.392616544429e-06
  59    -0.00079353095259284
  60    -0.0024798598457287
  61    -0.0029233374020384
  62    0.0035273022308091
  63    -0.0024659817154221
  64    -0.0040907288276401
  65    0.0056218165837467
  66    -0.00066526140710141
  67    6.9133966941003e-05
  68    0.00012988877793761
  69    -0.00024705767056627
  70    0.00026572301203756
  71    -0.00046800996398556
  72     0.010924589520416
  73    -0.029192229643119
  74    -0.0044627297762722
  75    0.00079732598499821
  76    -0.0019489765357454
 Sym= A
 Ene=               7
 Spin= Alpha
 Occup=    1.00000
   1    -0.0018582131744003
   2    -0.0049607965364309
   3    0.0042427140340479
   4     0.010038026419132
   5    0.00089204621060849
   6    -0.0054569384109369
   7     0.032133342968056
   8    -0.0094707001265126
   9    -0.015627523623674
  10    0.0076340934933847
  11    -0.00046869421819213
  12    -0.017896092544925
  13    -0.016622133257118
  14     0.024786195421142
  15    5.3600490821679e-05
  16    -0.022894288728969
  17    -0.082560561396322
  18      0.03353161521097
  19    -0.012094350234784
  20    0.0037773088834759
  21     0.020514140788075
  22    0.0016326816773457
  23     0.011318852216953
  24    -0.00065589176606208
  25    -0.00059652082489395
  26    -0.00031616795956409
  27    -0.00098942513473525
  28    0.00064469371449724
  29    1.1752016289624e-06
  30    0.00084375694148594
  31    0.0025372264250521
  32    -0.0030711691971734
  33    0.0017920952892261
  34    -0.003889042189474
  35    -0.0041968501830458
  36    -0.00034014322962393
  37    -0.0056229421835953
  38    0.00019224165222039
  39    -0.00049418079781764
  40    0.0003105714670301
  41    -0.00013356517845023
  42    4.4498735801933e-05
  43     0.014894064732453
  44     0.018990147106179
  45    0.0029159229466323
  46    0.00050340845641638
  47    0.0011043265708463
  48    -0.010916119971018
  49     0.028907782970592
  50    -0.0044686983757072
  51    0.0017576031519444
  52    -0.0011194167565488
  53    -0.0010741147295138
  54    -0.0025412128409501
  55    -0.0014929454846277
  56    0.00011487880073431
  57    0.00031049179818905
  58    -0.0012173090929405
  59     0.016147605661075
  60     0.029549901342336
  61      0.55857189450512
  62      0.12659815406858
  63     -0.33824617770144
  64      0.39600871282895
  65     0.087287994427647
  66     -0.23889549299808
  67    -0.0017239827757984
  68    -0.00058802910914903
  69    0.0064402672873213
  70    0.0057123982596504
  71    -0.009397736056379
  72     0.036581833402681
  73     0.042514404473044
  74    -0.0014793987464012
  75     0.001376428686201
  76    0.0005865509112637
 Sym= A
 Ene=               8
 Spin= Alpha
 Occup=    1.00000
   1    -0.0019457576804043
   2     -0.15304683000964
   3    0.0062162711435764
   4     0.096170875653589
   5      -0.2816256634389
   6     0.049977387471789
   7     0.024888004935019
   8    -0.047204428536718
   9    0.0077045559134497
  10     0.027136883915474
  11    -0.0052233312768884
  12     0.015765833669698
  13     0.038722910158251
  14     0.029199408139105
  15    0.00048177680983635
  16     0.015676312506706
  17    -0.014171759182991
  18    -0.023014394242421
  19    0.0051231835492146
  20    0.0021976475572562
  21    -0.012871400266844
  22    -0.0080390102586354
  23    0.0052718645221049
  24    -0.00035427903851524
  25    -0.0019077868299308
  26    -0.0020860096074045
  27    -0.0045020656250343
  28     0.011264410481956
  29    -0.00015850321052812
  30    -0.0024409132507321
  31    -0.0035741815179116
  32    0.0047088014395077
  33    0.0005854563316168
  34     0.002366570079255
  35    0.0084252608840426
  36    0.0010582891001654
  37    0.0005088829544963
  38    -5.3902040026005e-05
  39    0.00050773134230068
  40    -0.00026696816078286
  41    0.00030629850732027
  42    8.7742093628585e-05
  43    -0.016031602013982
  44    -0.020675046669011
  45    -0.00023733625651026
  46    0.0014968651386574
  47    -0.00074377393071796
  48     0.013452668112626
  49     0.031149229731655
  50    -0.00088266937581929
  51    -5.1088052153567e-05
  52    1.1394218988537e-05
  53     0.010240240977246
  54      0.02135956311502
  55    0.0013809723660013
  56    -0.010432068214769
  57    -0.00043300410226555
  58    0.0040751188932809
  59     -0.15215900894361
  60     -0.12063796059114
  61     -0.15321762252391
  62      0.47395869194505
  63    -0.084695235117428
  64      -0.1010014717771
  65      0.31187612956867
  66    -0.055598037587891
  67    0.0097013185351023
  68    -0.001870523778724
  69    0.0056044192936581
  70     0.014302835841573
  71     0.010676774096919
  72     0.010129443353882
  73     0.018214707876197
  74    0.0011082725634483
  75    -0.009677543872088
  76    0.0038987107328488
 Sym= A
 Ene=               9
 Spin= Alpha
 Occup=    1.00000
   1    0.00044177096409136
   2     0.015392805376668
   3    -0.014466351303221
   4     0.022787386618065
   5    0.0026546533070845
   6    0.0021027883462193
   7     0.012786815674702
   8     0.003671962416147
   9    -0.0097052319015612
  10    0.0044956462652048
  11    -0.011404800632528
  12    -0.00097402857082747
  13    -0.0016382073237161
  14    -7.460589168387e-05
  15    -0.001964156939618
  16     -0.15081115796175
  17    0.0075566652265221
  18    -0.094675574798999
  19    0.00016314248043629
  20     -0.28781766060275
  21    -0.024322655075448
  22    -0.00061193968413846
  23    -0.048541486491109
  24    -0.049606317033776
  25    -0.029582152263619
  26    0.00017206820587836
  27    -0.0056600182232854
  28    8.2756685629612e-05
  29     0.004058975644553
  30     -0.15224041050375
  31     -0.12067431615048
  32      0.15375815105973
  33    -0.0011747825853015
  34      0.48142660199146
  35      0.10125893629047
  36    -0.00063452766071342
  37      0.31684166299308
  38    -0.018045850172345
  39    -0.010862253032224
  40    -4.9524526355407e-05
  41    -0.0017570013179921
  42    -1.1422137037172e-05
  43     0.012506665322966
  44     0.021873559313317
  45    -0.0014455170027061
  46    -0.0020134115924673
  47    -0.010127522960594
  48     0.012200447042699
  49     0.018579316658879
  50    -0.0011471441304647
  51    0.0019391717886651
  52    -0.010145843805874
  53    -0.014263212300906
  54    -0.019949069883678
  55    0.00030058666312516
  56    -0.00039260033288384
  57    0.0016594916513424
  58    -0.00015893383168751
  59    -0.0024497160558783
  60    -0.0035723710557025
  61    -0.0047295198985069
  62    0.0024495658887302
  63    0.00036890535800559
  64    -0.0084288120451251
  65    0.00071201603998256
  66    0.0012580375620381
  67    -0.00016412894414616
  68    -8.8526088654515e-06
  69    -0.00025391543508917
  70    0.00024365606293282
  71    -0.00051163229821705
  72      0.01160940086494
  73     0.030659773797393
  74    0.00079460570989969
  75    -5.2543457250437e-05
  76    3.8032741090123e-05
 Sym= A
 Ene=              10
 Spin= Alpha
 Occup=    1.00000
   1    -0.0066695973886524
   2     -0.03619620857291
   3    -0.030423372051652
   4     0.016909086188985
   5    -0.050401152157199
   6    0.0091456460612861
   7    -0.0037354571530169
   8    -0.0015903098041644
   9    1.8063338499598e-05
  10    -0.0012004699687256
  11    1.3265472485209e-05
  12    -1.6395168822032e-05
  13    -0.0010825255293297
  14    -0.0020593387717511
  15    -0.00040076721496065
  16    0.00046620430595716
  17    0.0055468045967546
  18    -0.0039446659366635
  19    -0.0023628658593779
  20    0.0014205075140129
  21    -0.016999812473707
  22    -0.0099232634137267
  23    0.0066513463304043
  24    0.00012068845020053
  25    -0.00034047866811127
  26    -1.0364943533349e-05
  27    0.0004643816913405
  28    0.0029960743960834
  29    0.00030079344330856
  30    9.8762699486032e-05
  31    -0.003484306326351
  32    0.0010073989194496
  33    0.00046766733836116
  34    0.00028544884249065
  35    0.0033766506082698
  36     0.001007254154378
  37    0.00011636119832532
  38    -2.9381165339995e-05
  39    6.7382010849149e-05
  40    -1.6816044254952e-05
  41    4.532455023439e-05
  42    8.1871593393917e-05
  43    -0.0031505558094127
  44    -0.0058998086095515
  45    -0.00022551700343776
  46    0.00062645384793038
  47    -8.2134332344737e-05
  48    0.0023160010041109
  49     0.020990178910524
  50    -0.00073246158983571
  51    -0.00041653901295441
  52    0.00051948519426099
  53    0.00052710102446706
  54     0.012800424160188
  55    0.0013604698879147
  56    -0.0021168470190805
  57    0.0012617655616122
  58    0.0056234213900789
  59      0.46852211659937
  60      0.55014057348081
  61    -0.096125592297891
  62      0.22062416020258
  63    -0.030600953939057
  64    -0.067136069438669
  65      0.15567314136068
  66    -0.021757677967085
  67    0.0022643342341884
  68    -0.00045212803991017
  69    0.0010887472946109
  70    0.0031798830900794
  71    0.0027913056423932
  72    -0.00054751294473486
  73     0.010440155783592
  74    0.0011686695675526
  75    -0.0024589365112458
  76    -0.00041174870766352
 Sym= A
 Ene=              11
 Spin= Alpha
 Occup=    1.00000
   1    -0.0004025693642195
   2    0.00029768012695935
   3    0.0053950044215864
   4    0.0040089280739487
   5    0.0010227255101122