[Molden Format]
made by pyscf v[2.0.1]
[Atoms] (AU)
C   1   6     0.00000000000000     0.00000000000000     0.00000000000000
C   2   6     2.85207482267819     0.00000000000000     0.00000000000000
F   3   9     3.65415199667903     0.00000000000000     2.45977207315200
H   4   1     3.58561868306314    -1.67891019462705    -0.93677358840720
H   5   1     3.58561868306314     1.67891019462705    -0.93677358840720
H   6   1    -0.73354386038494    -1.45450033377066    -1.25726408388254
F   7   9    -0.80207717400084     2.31142966595619    -0.84129159700793
H   8   1    -0.73354386038494    -0.30605812297611     1.89805495782401
[GTO]
1 0
 s    8 1.00
                  6665  0.00069158396281299
                  1000  0.0053257961529341
                   228   0.027060721042034
                 64.71    0.10165684614077
                 21.06     0.2745748236174
                 7.495    0.44829431892377
                 2.797    0.28490261071525
                0.5215   0.015194859206082
 s    8 1.00
                  6665  -0.00029326965268655
                  1000  -0.0023180354739745
                   228  -0.011499786038565
                 64.71  -0.046826727009787
                 21.06   -0.12846616875047
                 7.495   -0.30126627246289
                 2.797   -0.25563070233011
                0.5215      1.093793361012
 s    1 1.00
                0.1596                   1
 p    3 1.00
                 9.439   0.056979251590039
                 2.002    0.31320721150073
                0.5456    0.76037674173753
 p    1 1.00
                0.1517                   1
 d    1 1.00
                  0.55                   1

2 0
 s    8 1.00
                  6665  0.00069158396281299
                  1000  0.0053257961529341
                   228   0.027060721042034
                 64.71    0.10165684614077
                 21.06     0.2745748236174
                 7.495    0.44829431892377
                 2.797    0.28490261071525
                0.5215   0.015194859206082
 s    8 1.00
                  6665  -0.00029326965268655
                  1000  -0.0023180354739745
                   228  -0.011499786038565
                 64.71  -0.046826727009787
                 21.06   -0.12846616875047
                 7.495   -0.30126627246289
                 2.797   -0.25563070233011
                0.5215      1.093793361012
 s    1 1.00
                0.1596                   1
 p    3 1.00
                 9.439   0.056979251590039
                 2.002    0.31320721150073
                0.5456    0.76037674173753
 p    1 1.00
                0.1517                   1
 d    1 1.00
                  0.55                   1

3 0
 s    8 1.00
                 14710  0.00072067370873197
                  2207  0.0055504869689163
                 502.8   0.028254207662589
                 142.6    0.10639582836653
                 46.47    0.28668420124307
                  16.7    0.44843796582416
                 6.356    0.26464118141135
                 1.316   0.015326060993048
 s    8 1.00
                 14710  -0.00032119389049893
                  2207  -0.0025461915683188
                 502.8  -0.012643359507821
                 142.6   -0.05195749170489
                 46.47   -0.14344713812646
                  16.7   -0.33243762329603
                 6.356   -0.21865906750347
                 1.316     1.0955904138622
 s    1 1.00
                0.3897                   1
 p    3 1.00
                 22.67   0.064834021493887
                 4.977    0.34053535983101
                 1.347    0.73464640679382
 p    1 1.00
                0.3471                   1
 d    1 1.00
                  1.64                   1

4 0
 s    3 1.00
                 13.01   0.033498726389998
                 1.962    0.23480080117413
                0.4446     0.8136829578829
 s    1 1.00
                 0.122                   1
 p    1 1.00
                 0.727                   1

5 0
 s    3 1.00
                 13.01   0.033498726389998
                 1.962    0.23480080117413
                0.4446     0.8136829578829
 s    1 1.00
                 0.122                   1
 p    1 1.00
                 0.727                   1

6 0
 s    3 1.00
                 13.01   0.033498726389998
                 1.962    0.23480080117413
                0.4446     0.8136829578829
 s    1 1.00
                 0.122                   1
 p    1 1.00
                 0.727                   1

7 0
 s    8 1.00
                 14710  0.00072067370873197
                  2207  0.0055504869689163
                 502.8   0.028254207662589
                 142.6    0.10639582836653
                 46.47    0.28668420124307
                  16.7    0.44843796582416
                 6.356    0.26464118141135
                 1.316   0.015326060993048
 s    8 1.00
                 14710  -0.00032119389049893
                  2207  -0.0025461915683188
                 502.8  -0.012643359507821
                 142.6   -0.05195749170489
                 46.47   -0.14344713812646
                  16.7   -0.33243762329603
                 6.356   -0.21865906750347
                 1.316     1.0955904138622
 s    1 1.00
                0.3897                   1
 p    3 1.00
                 22.67   0.064834021493887
                 4.977    0.34053535983101
                 1.347    0.73464640679382
 p    1 1.00
                0.3471                   1
 d    1 1.00
                  1.64                   1

8 0
 s    3 1.00
                 13.01   0.033498726389998
                 1.962    0.23480080117413
                0.4446     0.8136829578829
 s    1 1.00
                 0.122                   1
 p    1 1.00
                 0.727                   1

[5d]
[7f]
[9g]

[MO]
 Sym= A
 Ene=               0
 Spin= Alpha
 Occup=    1.00000
   1       1.0022409739139
   2    -0.00079174555244129
   3    -0.011769698785435
   4    0.00051188434985815
   5    0.0021604677506554
   6    -0.00094446049842053
   7    -0.00087853159361178
   8    0.0012555181589051
   9    -0.00047749284783828
  10    5.2776908977122e-05
  11    1.6986352311662e-05
  12    3.5320710699093e-06
  13    -0.0001539429643334
  14    1.002993964137e-05
  15    -0.0001219548198329
  16    -0.00067844627846592
  17    0.0024435955879205
  18    0.0011506171839419
  19    -1.7224058790933e-05
  20    -0.00010606150084272
  21    -0.0010134406685811
  22    -0.00030844595951534
  23    0.00013639516341909
  24    0.00017162188388015
  25    -1.0392710555737e-05
  26    -1.4304753425097e-05
  27    -0.00032156251692166
  28    3.8604367927416e-05
  29    5.9674055119103e-07
  30    8.469118630718e-05
  31    -1.8795665033373e-05
  32    -0.00027082996195244
  33    -1.49803362224e-05
  34    -2.9651858115571e-05
  35    -0.00031361667298628
  36    2.1874663949854e-05
  37    -3.2037893176073e-07
  38    -8.1965856719467e-07
  39    -3.3638323387829e-06
  40    1.6603042464144e-06
  41    1.8477356961292e-05
  42    -3.5867355359543e-06
  43    0.00013783414819409
  44    0.0002188461543041
  45    -1.8179174681269e-05
  46    4.7223183533349e-05
  47    1.1640646163881e-06
  48    -5.7919853983576e-05
  49    0.00039791994181385
  50    -7.8398422313205e-05
  51    -1.6755402690426e-05
  52    -9.3043358076795e-06
  53    -0.0030559724220414
  54    0.00081251531762324
  55    -0.0001184561481208
  56    -0.00051784410522326
  57    -0.0003894833526768
  58    0.00015165211649299
  59    4.3251439247186e-05
  60    -0.00029446458032263
  61    -0.0003607228003599
  62    0.0008724983336771
  63    -0.00031234515124103
  64    -0.00047280148802138
  65    0.0013574210051666
  66    -0.00048372644207883
  67    0.00012007651055269
  68    -5.5439315783295e-05
  69    0.00017811120077688
  70    0.00022046941332529
  71    0.00015114645386866
  72    -0.0030233809635523
  73    0.0008710364307345
  74    -8.5929022355938e-05
  75    -0.00013484643818457
  76    0.00058300694600761
 Sym= A
 Ene=               1
 Spin= Alpha
 Occup=    1.00000
   1    -0.00012124102378714
   2    -0.00068067735267025
   3    0.0024453827666136
   4    -0.001144465754862
   5    -9.9786621352035e-05
   6    2.697713444662e-05
   7    0.0010169279230436
   8    2.4827484495893e-05
   9    -0.00033540519707145
  10    0.00019884023417714
  11    -3.8818662936267e-05
  12    -3.5976354433649e-06
  13    -0.00030739003496657
  14    -3.8885662258445e-06
  15       1.0022411925219
  16    -0.00084068530636241
  17    -0.011798337815841
  18    -0.00054062559361986
  19    -0.00015333558959573
  20    0.0023859220799092
  21    0.00086754881852115
  22    -2.134882800864e-05
  23    0.0013569023901544
  24    9.9976148112593e-05
  25    -2.6143695464149e-06
  26    2.3022525073882e-05
  27    -0.00012527554644747
  28    -1.9722241190923e-05
  29    0.00015318142275935
  30    4.5797746990939e-05
  31    -0.00029109282562066
  32    0.00036214973282254
  33    5.4400501373279e-06
  34    0.00092417048019057
  35    0.00047566955737973
  36    1.035219752792e-05
  37    0.0014376283114598
  38    -0.0003074639555396
  39    -0.00016083107754412
  40    -1.1915490058307e-06
  41    -2.5771205146473e-05
  42    4.1124680096277e-07
  43    -0.0030980594047094
  44    0.0008034049447738
  45    0.00011944582955426
  46    -0.00054742647374308
  47    -0.00035470636823371
  48    -0.0030725153312481
  49    0.00085938619638373
  50    8.705537401459e-05
  51    0.00050638385045313
  52    -0.00032768000872781
  53    0.00012776596918692
  54    0.00021517365776636
  55    1.8046790510098e-05
  56    1.660296053776e-05
  57    4.3412507078696e-05
  58    6.3185056344018e-07
  59    8.5839736069426e-05
  60    -1.7576217552625e-05
  61    0.00027189169438989
  62    -3.4084331616967e-05
  63    -4.3070675500346e-06
  64    0.00031408396688951
  65    6.4247909342456e-06
  66    1.9899592342477e-05
  67    -1.4694907456617e-05
  68    2.3099540392858e-06
  69    -4.2554020649984e-06
  70    1.0477451720554e-05
  71    4.2886706370007e-06
  72    -5.8316209005048e-05
  73    0.00039496455809589
  74    7.8645780397834e-05
  75    -1.4328082962581e-05
  76    -1.2383894159659e-05
 Sym= A
 Ene=               2
 Spin= Alpha
 Occup=    1.00000
   1    -4.4763006400848e-05
   2    6.4058536377013e-05
   3    0.0031806323830409
   4    -0.00024316974800027
   5    0.0005184434025423
   6    -0.0001913019566753
   7    8.3618756739825e-05
   8    0.0011787143378011
   9    -0.00042927478632634
  10    1.380088928929e-05
  11    -7.4227649661882e-06
  12    5.759149736338e-06
  13    1.2697743022851e-07
  14    2.1354647999278e-05
  15    4.8889180484393e-05
  16    6.120093898985e-05
  17    -0.0011562187926728
  18    0.00013850021492907
  19    3.9037870257207e-05
  20    -1.2109196721323e-05
  21    0.00049740547872499
  22    -0.00027647419275317
  23    9.4396041856811e-05
  24    -2.9966411304452e-05
  25    -9.9049573850619e-06
  26    -6.6450341345436e-05
  27    -7.7133702872629e-05
  28    3.2850613468602e-05
  29     7.33312768749e-07
  30     8.92136898674e-06
  31    7.5111131522693e-05
  32    -2.3050514228006e-05
  33    6.5792631147169e-07
  34    -1.2655188220824e-05
  35    -2.0812143583162e-05
  36    1.0620877427102e-05
  37    -2.9322151532569e-05
  38    9.219849806136e-06
  39    1.0696743565745e-06
  40    -1.0533881369932e-05
  41    -4.0137194443885e-06
  42    2.8419503141475e-06
  43    7.8861445852202e-05
  44    4.0909732625962e-05
  45    -2.4720793901917e-05
  46    4.2372445434015e-05
  47    -2.9114443554849e-05
  48    3.0254635492833e-05
  49    1.9982803507972e-05
  50    4.7077489358557e-05
  51    3.055759747734e-06
  52    -6.1752428233518e-06
  53    -0.00027204253067449
  54    -0.00022500057522412
  55    -1.0255588761547e-05
  56    -0.00015950697281737
  57    2.8647127378781e-05
  58       1.0009625413505
  59    -0.004129837941161
  60    -0.010821364379118
  61    0.0011872815580408
  62     -0.00258819922295
  63    0.00089307614107939
  64    0.00018519764927336
  65    2.9494792021461e-05
  66    -3.6510775137483e-05
  67    5.3820190545998e-05
  68    -2.7477443622561e-05
  69    8.9889957205817e-05
  70    0.00011613747114175
  71    7.4985403259153e-05
  72    -0.00026824584528193
  73    -0.0002085174053574
  74    -1.0268510108086e-05
  75    -0.00014114606025232
  76    8.1042155798973e-05
 Sym= A
 Ene=               3
 Spin= Alpha
 Occup=    1.00000
   1    4.8435826228265e-05
   2    6.7977007090857e-05
   3    -0.0011431167039043
   4    -0.0001272880743404
   5    5.5802893973305e-06
   6    4.1904858270233e-05
   7    -0.00046578116209165
   8    -1.8324453709461e-06
   9    -0.00031572018689526
  10    0.00010509175623446
  11    -4.035305476433e-05
  12    -9.7128620402498e-06
  13    2.0927168365128e-06
  14    -2.1560276977803e-06
  15    -5.822416660406e-05
  16    -3.6957012810137e-07
  17    0.0031307108494815
  18    0.00020998556847538
  19    -2.1222765680368e-06
  20    0.00044609057936224
  21    -7.61807099796e-05
  22    -2.4217806326447e-07
  23    0.0012507903807008
  24    -7.8745329479312e-06
  25    -1.8863332727823e-05
  26    -3.2530343147616e-06
  27    -1.0849926131304e-05
  28    -2.7788248067349e-07
  29       1.0009731166953
  30    -0.0032704034410997
  31    -0.0098121081760424
  32    -0.00097141453004309
  33    -4.9378539449746e-05
  34    -0.0023220058712455
  35    -3.4311297518637e-05
  36    -2.6993510945242e-05
  37    0.00033327333514288
  38    -0.00016386410030628
  39    -8.596038921361e-05
  40    1.5547577540081e-06
  41    -6.2701021371909e-06
  42    2.1044474534337e-07
  43    -0.00026810645677491
  44    -0.00020133395029141
  45    7.492825016826e-06
  46    -2.5612489233998e-05
  47    -0.00016424114606313
  48    -0.00026433243647242
  49    -0.00018831858648031
  50    7.8092196371833e-06
  51    2.5872973019055e-05
  52    -0.00016489395682434
  53    6.9471779348545e-05
  54    2.4196078069379e-05
  55    2.4945580780193e-05
  56    -1.2940431730268e-05
  57    5.0817657029139e-05
  58    1.1277691949156e-06
  59    7.8441246986041e-06
  60    6.8219931085271e-05
  61    1.9925854782279e-05
  62    -9.7173792342403e-06
  63    5.1077040173006e-06
  64    1.4060808005594e-05
  65    -2.2364855087069e-05
  66    2.1522518100289e-05
  67    5.9019096687672e-06
  68    -2.330003498204e-06
  69    -1.2063813283699e-05
  70    -5.7378796247357e-06
  71    -2.2531223611063e-06
  72    4.1999333740396e-05
  73    6.4044559829932e-05
  74    -4.5270426495796e-05
  75    -4.0411316187307e-06
  76    3.3860845969082e-06
 Sym= A
 Ene=               4
 Spin= Alpha
 Occup=    1.00000
   1    -0.0011187791090078
   2    -0.011296148900785
   3    -0.021873259736578
   4    -0.013000300726692
   5    -0.0019414305763992
   6    -0.0026512563688651
   7    -0.00039428601713879
   8    0.0050005452774368
   9     0.011692207302661
  10    0.00043802822717649
  11    -0.00028587108048795
  12    0.00074807279812294
  13    -0.00039316508552232
  14    -0.0014238623493059
  15    -6.0980305244683e-05
  16    -0.00092653978197507
  17     -0.01038173162683
  18    -0.0026726875454113
  19    0.0077184953947964
  20    0.0012983234735472
  21    -0.0086553293249395
  22     0.029785783089411
  23    -0.0058921937246288
  24    0.0060095389900257
  25    -0.009450675242245
  26     0.032867126442594
  27    -0.0048267872814096
  28    0.0082725627904847
  29    -0.00048453500707323
  30    0.0028131285830056
  31     0.009139139794178
  32     -0.21929024292699
  33       0.6249132024423
  34     0.071105422820677
  35     -0.15534372917632
  36      0.44265959128467
  37     0.048864829798184
  38    -0.0022229442170359
  39    0.0035929086095035
  40    -0.011259761389127
  41    0.0014499974219302
  42    -0.0042141061638555
  43     0.048809659807393
  44     0.054306784503659
  45    0.00031018102884103
  46    -0.0010901584403179
  47    0.0017733418793236
  48    -0.032711315674966
  49    -0.035916015600921
  50    0.00062286008715631
  51    -0.0007934384531565
  52    -0.00078148963863008
  53    0.0058034854133533
  54     0.016892999218491
  55    0.00057851885568958
  56    0.00085517383485867
  57    0.0004965725051859
  58    0.00073181681189538
  59    0.0026907618071696
  60    0.00083440752169587
  61    0.0031455361439592
  62    -0.0016163005632142
  63    -0.0010012782557966
  64    -0.00057072117143289
  65    -0.0019290922750685
  66    -0.0018015010454067
  67    0.00013446463387636
  68    -7.4568692166268e-05
  69    0.00014097490492589
  70    -0.00027167026776093
  71    0.00034398028687571
  72    -0.0049875291534495
  73    0.00065313194627586
  74    0.00048296308020991
  75    0.00068596369563628
  76    0.00099617010383511
 Sym= A
 Ene=               5
 Spin= Alpha
 Occup=    1.00000
   1    5.217909627261e-05
   2     0.025746705049588
   3     0.087713787770235
   4     0.034835920121995
   5    0.00039594962149553
   6      0.01238729804042
   7     0.022085019593168
   8    -0.0043787018399685
   9    1.4505029228704e-05
  10    -0.0011802031363913
  11    0.00090929753501884
  12    0.00014555944596001
  13    1.2503422557009e-05
  14    -0.00033576640702926
  15    0.0020546082933276
  16    0.0042461196388493
  17    -0.0056718868700868
  18    0.0099922452660717
  19    0.0025898803248096
  20    -0.00061879383162286
  21     0.034914731771164
  22     0.010946247002906
  23    0.0072129590854573
  24    -0.016569981329452
  25     0.026041013218058
  26     0.012197724984486
  27      0.01266704227137
  28    0.0028091375248795
  29    0.0013269986676249
  30     -0.01813565921781
  31    -0.032494023552345
  32      0.59214785559017
  33      0.23063089586263
  34     -0.19608183987201
  35      0.41979588104099
  36      0.16360534687097
  37     -0.13627777449248
  38    0.0062835425417575
  39    -0.0096592459497062
  40    -0.0041035390362407
  41    -0.003524939380441
  42    -0.0016900281840657
  43    -0.0052499996926885
  44    -0.0049004069642987
  45    -0.0015926488912979
  46    -0.00024255742678852
  47    -0.00025128310015037
  48    -0.035077144059556
  49    -0.039503341071548
  50    -0.0014562065483488
  51    -0.00046592240908454
  52    -0.0012337446834781
  53    -0.012618908131043
  54    -0.017626692872845
  55    0.0029762652605596
  56    -0.0014111547308083
  57    0.00025088354257527
  58    0.00030735288297494
  59    -0.0010072355465328
  60    -0.0071708609647441
  61    -0.0037874573020195
  62    0.0044339691813562
  63    -0.0034857907127139
  64    -0.004565223959714
  65    0.0074855260916697
  66    -0.0022150411803265
  67    0.00013270540063049
  68    0.00021932939317426
  69    -0.00015669454008985
  70    0.0003647017391314
  71    -0.00049774535047688
  72     0.012261956740982
  73    -0.028053011103051
  74    -0.004638709855705
  75    0.00071292530381205
  76    -0.0024623804699204
 Sym= A
 Ene=               6
 Spin= Alpha
 Occup=    1.00000
   1    -0.0020679366914382
   2    -0.0055963212683873
   3    0.0042304105100286
   4     0.010867375925847
   5    0.00064882747682341
   6    -0.003690015062392
   7     0.035576154334429
   8    -0.0099914398630636
   9    -0.0069017586667734
  10     0.010191873118659
  11    -0.0067383791064593
  12    -0.013433069739558
  13    -0.016662989567522
  14      0.02559982011664
  15    -9.1242823950689e-05
  16    -0.025448558733991
  17    -0.088039759803306
  18     0.035665248908243
  19     -0.01244568561323
  20    0.0032585816587661
  21     0.022111964586293
  22    0.0018486887930297
  23    0.0039493033946426
  24    -0.00030759532840116
  25    -0.00053186372305876
  26    -0.0007102142376788
  27    -0.00096231699247462
  28    0.00073040392200982
  29    -0.0002752042316558
  30    0.0011229823881956
  31     0.007199140757251
  32    -0.0040021389111395
  33    0.0017235927295282
  34    -0.005347083584474
  35    -0.0046124594117094
  36    -0.00052588483779789
  37    -0.0077625285148645
  38    0.00024788851277597
  39    -0.00055826051145697
  40    0.00032429699042433
  41    -0.00017146622096323
  42    3.472893796494e-05
  43     0.013944417650683
  44       0.0186854962066
  45    0.0029035766719882
  46    0.00036070894861953
  47    0.0014745493757202
  48    -0.012257923962612
  49     0.027920682720394
  50    -0.0046603570562299
  51    0.0020693521792745
  52    -0.0014899927681399
  53    0.0068697040867383
  54    0.0073588385310502
  55    -0.0016088690888917
  56    0.00034363655381468
  57    -2.1143807271264e-05
  58    -0.0013665587450135
  59     0.018964805928572
  60     0.033693128796412
  61      0.60172605765442
  62      0.11793712175693
  63     -0.25710800045891
  64      0.42652094040902
  65     0.080935794750807
  66     -0.18136096361448
  67    -0.0026747396927645
  68     0.001955783064649
  69    0.0051495469452484
  70    0.0057366586923833
  71    -0.0097477280355035
  72     0.031475277421298
  73     0.037281723545614
  74    -0.0015420247056182
  75    0.0012683432178201
  76    0.00016100295894841
 Sym= A
 Ene=               7
 Spin= Alpha
 Occup=    1.00000
   1    3.304993161935e-05
   2    -0.0011812222557339
   3    -0.010892147082866
   4    0.0024764521931377
   5    0.0053639739761272
   6     0.009790872734356
   7    0.0070886779582461
   8    0.0056637562512861
   9     0.031416461512351
  10    -0.017017415426926
  11    -0.010797816562056
  12     0.023880976851576
  13    -0.017061848858896
  14     0.004775105207609
  15    -0.0011018819083557
  16    -0.0096409761765705
  17     -0.01749004400257
  18     0.011576614875052
  19    -0.0030193067284153
  20    -0.0012068238782898
  21    -0.00051431358449191
  22      0.01240404362571
  23    0.00044138021117517
  24    -0.00026687634731158
  25    0.0011145103523047
  26    0.00049977201573398
  27    -0.00077593408287249
  28    0.00063650026697511
  29    0.00073801593979763
  30    0.0025231985326898
  31    0.00026951586034681
  32    -0.0028446157596947
  33    -0.0015407407433826
  34    -0.00077319113688189
  35    0.00088452058294015
  36    -0.0022798659068434
  37    -0.00071450424188029
  38    7.8535324841693e-05
  39    -0.00032452190881391
  40    0.00011211731619888
  41    -0.00028831107781776
  42    -4.8433481929301e-05
  43    0.0059967856935693
  44     0.016383240278761
  45    -0.00073421770265891
  46    0.0007805911585106
  47    0.00058779606311541
  48    -0.004387817174622
  49    -0.00069819363844462
  50    -0.00026898251862855
  51    0.0010545368223197
  52    0.00037249603963972
  53     0.045652547166549
  54     0.052938967388421
  55    -0.00034425764727724
  56    0.0011403299257495
  57    -0.0017237733454032
  58    -0.00044883769335459
  59    0.0023094812656525
  60    0.0080223953281145
  61      0.19156499028487
  62      0.27509373133144
  63      0.57533364168882
  64      0.13567976159672
  65      0.19349719398816
  66      0.40783389078796
  67    0.0060347168738247
  68    0.0051147563050754
  69    -0.0081363695715242
  70    0.0058844995114867
  71    -0.0014857799049781
  72    -0.032456597367018
  73    -0.036984028759161
  74    -0.00047790386320655
  75    -0.0010113016396606
  76    -0.00054955815958462
 Sym= A
 Ene=               8
 Spin= Alpha
 Occup=    1.00000
   1    -0.0019360039732128
   2     -0.15278531769282
   3     0.007910210311788
   4     0.096181939416654
   5     -0.26856186287344
   6     0.098325418276294
   7     0.025468129848639
   8    -0.043833394986744
   9      0.01658813020966
  10     0.019992962869899
  11    -0.0099139682125932
  12     0.029619213904958
  13     0.034669765032006
  14     0.027931123267773
  15    0.00070931529555447
  16     0.016676781587078
  17    -0.016214929026544
  18    -0.022631418039078
  19    0.0053669562946903
  20    0.0035616974713744
  21    -0.011446492175909
  22     -0.01016441990005
  23    0.0056252068094779
  24    -0.00046388106564272
  25    -0.0037014479270136
  26    -0.0027554837772338
  27    -0.004262366944127
  28     0.010850125972984
  29    -0.00031943973384761
  30    -0.0036119411426432
  31    -0.0046222910743737
  32    0.0065963016340174
  33    0.00032295761709824
  34    0.0040180629882463
  35    0.0093195866942224
  36    0.0014211971598494
  37    0.0013668654487142
  38    -5.9163326292977e-05
  39    0.0004858796827242
  40    -0.00030829193508505
  41    0.00033209636846087
  42    2.9410399426622e-05
  43    -0.013676939671582
  44    -0.020997067223949
  45    -0.00053783397708664
  46    0.0015858840683717
  47    -0.00071238637288898
  48     0.013803446999604
  49     0.033567443365327
  50    -0.0010120348375945
  51    0.00018258557128369
  52    0.0002303478569876
  53     0.010420055452315
  54     0.022374289515736
  55    0.0013947764288763
  56     -0.01039213514413
  57     0.001364876609465
  58    0.0041430510847316
  59     -0.15214423302172
  60      -0.1213601752039
  61     -0.15296360007396
  62      0.45240010468407
  63     -0.16511160995297
  64     -0.10087719800302
  65      0.29788027431895
  66     -0.10856182436575
  67    0.0072316483088546
  68    -0.0036729166192974
  69     0.010561606662446
  70     0.012865553725916
  71     0.010212622330307
  72    0.0099166284742249
  73     0.017150369530147
  74    0.0010550469891754
  75    -0.0088745821430372
  76    0.0054269078407881
 Sym= A
 Ene=               9
 Spin= Alpha
 Occup=    1.00000
   1    0.00067277569692087
   2     0.016289261870112
   3    -0.016594479688744
   4       0.0224885240348
   5    0.0044854224587138
   6    0.0014723187544546
   7     0.011379948345833
   8    0.0015734164126847
   9    -0.012288526953126
  10    0.0048466712398819
  11    -0.011447410725494
  12    -0.00039927579961261
  13    -0.0011270575014114
  14    -0.00022069727683871
  15     -0.00195136100177
  16     -0.15056372117554
  17    0.0092539706205853
  18    -0.094732186855228
  19    0.00034777341731521
  20     -0.28774734774484
  21    -0.024935455352391
  22    0.00055560651086079
  23    -0.047546802933026
  24    -0.049562717092588
  25    -0.029568022595613
  26    0.00042995736104139
  27    -0.0055653831266999
  28    -0.00021290744904259
  29    0.0040998028673313
  30     -0.15222393937268
  31     -0.12141424478464
  32      0.15346655491992
  33    -0.00050961194920704
  34       0.4815708609441
  35       0.1011183664065
  36    -0.00017878138724806
  37      0.31711102773526
  38    -0.018026287010281
  39    -0.010874399240135
  40    -6.5686200527257e-05
  41    -0.0017563466056786
  42    -4.0199382951363e-05
  43     0.012667406482583
  44     0.022857165594174
  45    -0.0014590870910179
  46    -0.0020483578101479
  47    -0.010162141647926
  48     0.011948477370264
  49     0.017549640996972
  50    -0.0010949578596961
  51    0.0018511886224731
  52     -0.01013561897907
  53     -0.01212361823806
  54    -0.020342130451112
  55    0.00059518950691883
  56    -5.0447190760864e-05
  57    0.0017626689491067
  58    -0.00032016670323783
  59    -0.0036184961514625
  60    -0.0046171521773409
  61    -0.0066304829897683
  62    0.0039247959721933
  63    -0.00088422284615087
  64    -0.0093416634405042
  65    0.0018318767021315
  66    0.0011508865783509
  67    -8.213485853237e-05
  68    0.00012843868110262
  69    -0.00028341827887118
  70    0.00032165484916104
  71    -0.00046537668458463
  72     0.011951198268518
  73     0.033094700781116
  74    0.00092678430203871
  75    0.00024242589790625
  76    0.00019853871141477
 Sym= A
 Ene=              10
 Spin= Alpha
 Occup=    1.00000
   1    -0.00020878029283665
   2    0.00088365228366813
   3    0.0043833797531985
   4    0.0042552666038176
   5    0.0011910180708363
   6    -0.0033086326182014
   7     0.016437481623402
   8    0.0021293584736187
   9     -0.01378412038439
  10    -0.00040321166756157
  11    -0.0029379412255422
  12    -2.8944042463262e-05
  13    0.0002820079637296
  14    -0.00012787118145328
  15    -0.006673834435871
  16    -0.036070164542704
  17    -0.029402874272372
  18    -0.016880836905757
  19    0.00022921263455974
  20    -0.051259364654703
  21    0.0034721449715499
  22    0.00036441987529631
  23    -0.00073262214559438
  24    0.0013342346070753
  25     0.002164584396495
  26    0.00040981651958154
  27    0.00057286630165665
  28    0.0001637449724365
  29     0.004730874877872
  30      0.46843348170493
  31      0.54962827142263
  32      0.10022812791095
  33    0.0052566355184734
  34      0.22118635787295
  35     0.069993129513423
  36    0.0035094541690938
  37      0.15622120806921
  38    -0.0039684928203699
  39    -0.0029010159102557
  40    -0.00013719015981231
  41    -0.00047781928806127
  42    -2.4852315966367e-05
  43    0.00027771421346608
  44     0.012907942267207
  45    -0.0013499106315727
  46    0.00087147462670216
  47    -0.0023489406398931
  48    -0.00059537872141546
  49     0.010171006996685
  50    -0.0011846785743387
  51    -0.00087146087623782
  52    -0.0023721864481699
  53    -0.002836398861775
  54    -0.0071256173625566
  55    0.00012924611289191
  56    4.6609720369852e-05
  57    0.00051021569897938
  58    0.00018035847072314
  59    -0.0003606648012036
  60    -0.0033412559632251
  61    -0.0015259473156186
  62    0.00087047485246496
  63    0.00027957767575543
  64    -0.0034355544079023
  65    0.00068563510597442
  66    0.0011231061822042
  67    -3.9655409526132e-05
  68    -3.6381632262767e-05
  69    -2.0345356840175e-05
  70    6.6147225250946e-05
  71    -0.00011757813451182
  72    0.0021993458504444
  73     0.022612566598198
  74    0.00090240280076675
  75    0.00032338347892637
  76    -0.00056226475780309
 Sym= A
 Ene=              11
 Spin= Alpha
 Occup=    1.00000
   1    -0.0066731795203605
   2    -0.036116090902595
   3    -0.029434643443903
   4     0.016865445751447
   5    -0.048055092078157