[Molden Format]
made by pyscf v[2.0.1]
[Atoms] (AU)
C   1   6     0.00000000000000     0.00000000000000     0.00000000000000
C   2   6     2.85207482267819     0.00000000000000     0.00000000000000
F   3   9     3.65415199667903     0.00000000000000     2.45977207315200
H   4   1     3.58561868306314    -1.67891019462705    -0.93677358840720
H   5   1     3.58561868306314     1.67891019462705    -0.93677358840720
H   6   1    -0.73354386038494    -1.79679287274265    -0.68397336938011
F   7   9    -0.80207717400084     1.88429472797734    -1.58111101127508
H   8   1    -0.73354386038494     0.36157246902272     1.88826628079960
[GTO]
1 0
 s    8 1.00
                  6665  0.00069158396281299
                  1000  0.0053257961529341
                   228   0.027060721042034
                 64.71    0.10165684614077
                 21.06     0.2745748236174
                 7.495    0.44829431892377
                 2.797    0.28490261071525
                0.5215   0.015194859206082
 s    8 1.00
                  6665  -0.00029326965268655
                  1000  -0.0023180354739745
                   228  -0.011499786038565
                 64.71  -0.046826727009787
                 21.06   -0.12846616875047
                 7.495   -0.30126627246289
                 2.797   -0.25563070233011
                0.5215      1.093793361012
 s    1 1.00
                0.1596                   1
 p    3 1.00
                 9.439   0.056979251590039
                 2.002    0.31320721150073
                0.5456    0.76037674173753
 p    1 1.00
                0.1517                   1
 d    1 1.00
                  0.55                   1

2 0
 s    8 1.00
                  6665  0.00069158396281299
                  1000  0.0053257961529341
                   228   0.027060721042034
                 64.71    0.10165684614077
                 21.06     0.2745748236174
                 7.495    0.44829431892377
                 2.797    0.28490261071525
                0.5215   0.015194859206082
 s    8 1.00
                  6665  -0.00029326965268655
                  1000  -0.0023180354739745
                   228  -0.011499786038565
                 64.71  -0.046826727009787
                 21.06   -0.12846616875047
                 7.495   -0.30126627246289
                 2.797   -0.25563070233011
                0.5215      1.093793361012
 s    1 1.00
                0.1596                   1
 p    3 1.00
                 9.439   0.056979251590039
                 2.002    0.31320721150073
                0.5456    0.76037674173753
 p    1 1.00
                0.1517                   1
 d    1 1.00
                  0.55                   1

3 0
 s    8 1.00
                 14710  0.00072067370873197
                  2207  0.0055504869689163
                 502.8   0.028254207662589
                 142.6    0.10639582836653
                 46.47    0.28668420124307
                  16.7    0.44843796582416
                 6.356    0.26464118141135
                 1.316   0.015326060993048
 s    8 1.00
                 14710  -0.00032119389049893
                  2207  -0.0025461915683188
                 502.8  -0.012643359507821
                 142.6   -0.05195749170489
                 46.47   -0.14344713812646
                  16.7   -0.33243762329603
                 6.356   -0.21865906750347
                 1.316     1.0955904138622
 s    1 1.00
                0.3897                   1
 p    3 1.00
                 22.67   0.064834021493887
                 4.977    0.34053535983101
                 1.347    0.73464640679382
 p    1 1.00
                0.3471                   1
 d    1 1.00
                  1.64                   1

4 0
 s    3 1.00
                 13.01   0.033498726389998
                 1.962    0.23480080117413
                0.4446     0.8136829578829
 s    1 1.00
                 0.122                   1
 p    1 1.00
                 0.727                   1

5 0
 s    3 1.00
                 13.01   0.033498726389998
                 1.962    0.23480080117413
                0.4446     0.8136829578829
 s    1 1.00
                 0.122                   1
 p    1 1.00
                 0.727                   1

6 0
 s    3 1.00
                 13.01   0.033498726389998
                 1.962    0.23480080117413
                0.4446     0.8136829578829
 s    1 1.00
                 0.122                   1
 p    1 1.00
                 0.727                   1

7 0
 s    8 1.00
                 14710  0.00072067370873197
                  2207  0.0055504869689163
                 502.8   0.028254207662589
                 142.6    0.10639582836653
                 46.47    0.28668420124307
                  16.7    0.44843796582416
                 6.356    0.26464118141135
                 1.316   0.015326060993048
 s    8 1.00
                 14710  -0.00032119389049893
                  2207  -0.0025461915683188
                 502.8  -0.012643359507821
                 142.6   -0.05195749170489
                 46.47   -0.14344713812646
                  16.7   -0.33243762329603
                 6.356   -0.21865906750347
                 1.316     1.0955904138622
 s    1 1.00
                0.3897                   1
 p    3 1.00
                 22.67   0.064834021493887
                 4.977    0.34053535983101
                 1.347    0.73464640679382
 p    1 1.00
                0.3471                   1
 d    1 1.00
                  1.64                   1

8 0
 s    3 1.00
                 13.01   0.033498726389998
                 1.962    0.23480080117413
                0.4446     0.8136829578829
 s    1 1.00
                 0.122                   1
 p    1 1.00
                 0.727                   1

[5d]
[7f]
[9g]

[MO]
 Sym= A
 Ene=               0
 Spin= Alpha
 Occup=    1.00000
   1    -0.00011922508099964
   2    -0.00068417163621526
   3     0.002405190863208
   4    -0.0011372386512068
   5    -9.5366757183131e-05
   6    7.0461967127487e-05
   7    0.00097617039774768
   8    -0.00010046942556469
   9    -0.00028834057698351
  10    0.0002025640825423
  11    -3.7730394032158e-05
  12    -1.2615082190271e-05
  13    -0.00030924371220867
  14    -7.5591228258016e-06
  15       1.0022355854269
  16    -0.00085409791448273
  17    -0.011745798615395
  18    -0.00055337007488813
  19    -0.00014981092762069
  20    0.0024091565763646
  21    0.00084122992584111
  22    -5.8657548676316e-06
  23    0.0013337464790333
  24    0.00010353568608741
  25    -1.1649290857131e-06
  26    2.2864727186734e-05
  27    -0.00011886838974363
  28    -2.8060545653705e-05
  29    0.00015315774380544
  30    4.6342054993359e-05
  31    -0.00029138341107998
  32    0.00036381165422318
  33    9.3427185677479e-06
  34    0.00092164742568424
  35    0.00047996758683966
  36    3.2549257530599e-06
  37     0.001440508823119
  38    -0.00030869787816803
  39    -0.00016172020381145
  40    -1.0687210266651e-06
  41    -2.5658095707688e-05
  42    8.7247102405432e-07
  43    -0.0031072933021848
  44    0.00080180798733675
  45    0.00012090430461042
  46    -0.00054677355691883
  47    -0.00035386147230652
  48    -0.0030636348503625
  49    0.00086538268061432
  50    8.185814385035e-05
  51    0.0004976701494413
  52    -0.0003271057142446
  53    9.7592958200921e-05
  54    0.00015874147863229
  55    1.8144038915087e-05
  56    2.6923711891003e-05
  57    3.1280929270332e-05
  58    -9.7836231895492e-06
  59    7.7238676697252e-05
  60    5.837900762786e-05
  61    0.00028320953362489
  62    -3.1958360162096e-05
  63    3.3701979647742e-05
  64    0.0003600693104666
  65    -1.42742853856e-05
  66    2.0593990556964e-05
  67    -9.5585652311522e-06
  68    -2.4856376696424e-06
  69    -9.3071682277233e-06
  70    1.2716418155891e-05
  71    3.4158025092853e-06
  72    -5.9709285657385e-05
  73    0.00038996508853728
  74    8.1457907501626e-05
  75    -8.1432122756086e-06
  76    -8.826139152301e-06
 Sym= A
 Ene=               1
 Spin= Alpha
 Occup=    1.00000
   1       1.0022354091278
   2    -0.00080424745228351
   3    -0.011716685670724
   4    0.00052432723612594
   5    0.0017257998533364
   6    -0.0016399677745058
   7    -0.0008523891285626
   8    0.0010081559985282
   9    -0.00085196262013541
  10    5.4383645609576e-05
  11    1.9807173983748e-05
  12    -2.3520254294982e-05
  13    -0.00014868588497077
  14    1.9593131594928e-05
  15    -0.00011992992131398
  16    -0.00068255239229482
  17    0.0024031014037163
  18    0.0011429688055272
  19    -1.3969649702634e-05
  20    -0.00012059750808121
  21    -0.00097281425198023
  22    -0.00028687963446582
  23    0.00010656945777317
  24    0.00019114375661883
  25    -1.9482919763725e-05
  26    -2.2298090997929e-05
  27    -0.00031421508618949
  28    3.4369056713321e-05
  29    -9.872409666066e-06
  30    7.601261443532e-05
  31    5.7008468888825e-05
  32    -0.00028185329950319
  33    5.7995969530203e-06
  34    -4.5158012239036e-05
  35    -0.00035918529721466
  36    7.3587089699796e-06
  37    -2.3736979636412e-05
  38    3.8413517177242e-07
  39    -4.3355331664496e-06
  40    3.6282331119224e-07
  41    1.8451743126222e-05
  42    -2.6540455893623e-07
  43    0.00010595255415607
  44    0.00016215948777329
  45    -1.8249068430896e-05
  46    4.1853793459646e-05
  47    8.6408993748488e-07
  48    -5.8870664712279e-05
  49    0.00039295802716311
  50    -8.122100777883e-05
  51    -1.2223116375974e-05
  52    -6.3758668910282e-07
  53    -0.0030631274637006
  54    0.00081143969199784
  55    -0.00011984822759725
  56    -0.00061863618293356
  57    -0.00018888923804955
  58    0.00015274278127284
  59    4.3660139624555e-05
  60    -0.00029511438947572
  61    -0.00036268089524119
  62    0.00071392809905116
  63    -0.00058695641709018
  64    -0.00047734905918647
  65    0.0011080717162735
  66    -0.00092580012193301
  67    -2.2803018581718e-05
  68    -0.00010471916182414
  69    0.00027514893787258
  70    0.00013879293231669
  71    0.00012345536223781
  72    -0.0030152377444584
  73    0.00087682445688124
  74    -8.0753387411447e-05
  75    6.7551303558015e-05
  76    0.00058693980967682
 Sym= A
 Ene=               2
 Spin= Alpha
 Occup=    1.00000
   1    -5.745766907264e-05
   2    1.9703602998224e-05
   3    0.0032527374650464
   4    -0.00021871537173235
   5    0.00037677652954686
   6    -0.00031782939829746
   7    0.0001336146660908
   8    0.0010026373792721
   9    -0.00079421459826855
  10    -7.4120273564066e-07
  11    -5.9080245262488e-06
  12    9.6127132828263e-06
  13    -2.8122009371591e-06
  14    2.1298025223775e-05
  15    4.8590345934018e-05
  16    6.1877134171204e-05
  17    -0.0011936251753116
  18    0.00012148250617515
  19    4.9845865423588e-05
  20    -1.5248205161021e-05
  21    0.00058278618277958
  22    -0.00031750814271772
  23    0.00012780876091286
  24    1.7729496950113e-06
  25    -1.1399556697482e-05
  26    -8.9487195066012e-05
  27    -6.1623983395563e-05
  28    3.5521937308439e-05
  29    -1.5210170873849e-05
  30    -2.2333917475091e-05
  31    0.00012184307895569
  32    -1.183569111523e-06
  33    -4.1410132260919e-06
  34    -1.2007412344176e-05
  35    -9.2616639164658e-05
  36    3.264718712619e-05
  37    -3.0737314939511e-05
  38    4.2892904409182e-06
  39    1.8014681629866e-06
  40    -1.4472982582094e-05
  41    -1.2282858630686e-06
  42    -5.2315017872955e-07
  43    8.780875949029e-05
  44    -8.5049460400544e-05
  45    -1.3316386713141e-05
  46    3.5961424332666e-05
  47    -2.1082809857046e-05
  48    4.041262270167e-05
  49    6.0116937201138e-05
  50    3.6840975644728e-05
  51    1.0424661000239e-05
  52    4.9819518928053e-06
  53    -0.00027023618557634
  54    -0.00016822757715329
  55    -7.3174138992897e-06
  56    -0.00014235743742023
  57    8.5186582005119e-05
  58       1.0009716216078
  59    -0.0036399410243404
  60    -0.010273143982782
  61    0.0010593751872382
  62    -0.0018884251804273
  63    0.0016528819206765
  64    8.7549857638458e-05
  65    0.00018546127529967
  66    -0.00010064351447617
  67    -1.4414384641833e-05
  68    -5.3153634367192e-05
  69    0.00013906199151648
  70    7.8376208242373e-05
  71    6.5500615683412e-05
  72    -0.00027144019891051
  73    -0.0002157501479089
  74    -8.9641030083856e-06
  75    -0.00011129820786292
  76    0.0001247986504867
 Sym= A
 Ene=               3
 Spin= Alpha
 Occup=    1.00000
   1    4.8557270873618e-05
   2    6.2958912893638e-05
   3    -0.0011926908738242
   4    -0.000122365673842
   5    2.0487542598147e-05
   6    4.9448544703479e-05
   7    -0.00058305515923991
   8    -0.00010613002820189
   9    -0.00032486232077383
  10    0.00010789454910052
  11    -3.4657392628867e-05
  12    1.3359294888823e-05
  13    -3.3919956291248e-07
  14    -1.4114090455389e-05
  15    -5.747797479834e-05
  16    2.158151091408e-05
  17    0.0032537532901339
  18    0.00022036758083731
  19    -1.4611265712768e-06
  20    0.00049095920259542
  21    -0.00013268496633846
  22    3.6171282622036e-05
  23    0.0012778903256743
  24    -7.0968520046494e-06
  25    -2.0108102287792e-05
  26    3.8557387788815e-06
  27    -6.3743673691599e-06
  28    -9.1550510088382e-06
  29       1.0009716220615
  30    -0.0036396218524545
  31     -0.01027279855857
  32    -0.0010552818275008
  33    5.5240518169495e-05
  34    -0.0025091229277847
  35    -8.4758635467966e-05
  36    4.4192585798267e-05
  37    0.00020677173565828
  38    -0.00016011434713442
  39    -8.4437069981676e-05
  40    -2.2002284247515e-06
  41    -5.8012916988568e-06
  42    -1.4062174826924e-06
  43    -0.00026775836460829
  44    -0.00016740257541795
  45    7.2551904934743e-06
  46    -2.6043823928518e-05
  47    -0.00016375263594228
  48    -0.00026970978692228
  49    -0.00021556513540275
  50    8.9215145855038e-06
  51    2.3849978930166e-05
  52    -0.00016544541429401
  53    8.8026542713837e-05
  54    -8.5192874934404e-05
  55    1.3315338897027e-05
  56    7.0116006006812e-06
  57    4.1170020440303e-05
  58    -1.5213217905758e-05
  59    -2.2448650762875e-05
  60    0.00012161736663132
  61    1.1455998308372e-06
  62    -1.1748810044467e-05
  63    4.3411118514269e-06
  64    9.2624219378439e-05
  65    -2.4797909461674e-06
  66    4.4542553874734e-05
  67    1.3500632121767e-05
  68    1.5549177267183e-06
  69    -5.5801854062107e-06
  70    4.0786541186095e-06
  71    -1.0343504671763e-06
  72    4.2568068234145e-05
  73    6.0862206010835e-05
  74    -3.681747267899e-05
  75    1.0479411694177e-05
  76    4.6146161437427e-06
 Sym= A
 Ene=               4
 Spin= Alpha
 Occup=    1.00000
   1    0.00013609063946845
   2    0.0096408804200862
   3     0.032541751399619
   4     0.013495040687277
   5    0.00015890237109264
   6    0.0021882084730559
   7     0.018232280294663
   8     0.003019088626789
   9    -0.0099990692603091
  10    -0.00083311781805886
  11    0.00044898432977247
  12    0.00093400723491949
  13    0.0001965017025906
  14    -0.0012388993042977
  15    0.0013542935521796
  16    0.0019510669874298
  17    -0.014524761140455
  18    0.0044911690772956
  19    0.0073739532005493
  20    0.00025427401959802
  21      0.01780245584835
  22     0.029483090045351
  23    0.0033859814347646
  24    -0.0060892936579539
  25    0.0099133519067654
  26     0.032726477776718
  27    0.0046280099646165
  28    0.0080012840317326
  29    0.00057422683466679
  30    0.0006455713148279
  31    -0.0034897328983554
  32      0.22819918407692
  33      0.62109765414099
  34    -0.075280024134561
  35       0.1616829858699
  36      0.44019049443028
  37    -0.052604491497242
  38    0.0025413467252042
  39    -0.0037205899329357
  40    -0.011133549766538
  41    -0.0013001592709713
  42    -0.0043514101134371
  43     0.032924820587379
  44     0.038143144450138
  45    -0.00086638213812482
  46    -0.00096442764319283
  47    0.0010084725600786
  48    -0.048059059727636
  49    -0.054013413652158
  50    -0.00043525224040363
  51    -0.00086682378332594
  52    -0.0016770786346075
  53    -0.0008574190841983
  54    -0.0043238944956863
  55    0.0020781290151255
  56    -0.00026549939223066
  57    0.00088581114894282
  58    0.0012102303066005
  59    0.0018879779503715
  60    -0.0081797353479321
  61    8.0330979306067e-05
  62    0.0022821758530042
  63    -0.0024694951389866
  64    -0.0040852391640757
  65    0.0044151588513858
  66    -0.0027554620312466
  67    0.00012409148505614
  68    5.0549026518929e-05
  69    0.00010529042968004
  70    -2.2986762012107e-05
  71    -0.00012921227049604
  72    0.0057688191421168
  73    0.0003925407348087
  74    -0.00089070999257074
  75    0.00090803676820277
  76    -0.0011759466720542
 Sym= A
 Ene=               5
 Spin= Alpha
 Occup=    1.00000
   1    0.00041655248957865
   2     0.027015153569099
   3     0.084529386463014
   4     0.033821646652317
   5    0.0055084701100568
   6    0.0099770279563028
   7     0.016887542082199
   8    0.0092179872837636
   9    -0.00082011193459559
  10    -0.001132743001716
  11    0.00077061358293054
  12    0.00016040510850925
  13    7.1664819357247e-05
  14    0.00069493434073761
  15    0.0018065701057327
  16    0.0041830333054931
  17    0.00080546576421163
  18    0.0094448287887426
  19    -0.0029888814805912
  20    -0.00094806024120435
  21     0.033142010224794
  22      -0.0145274578249
  23    0.0084646063529213
  24    -0.016340074310678
  25     0.025973555082497
  26    -0.012218434696182
  27     0.012511038792607
  28    -0.0031571806735941
  29    0.0014229056192128
  30    -0.017787952840462
  31    -0.033258914470201
  32       0.5883509424717
  33     -0.24090482679361
  34     -0.19542663005086
  35      0.41710020200454
  36       -0.169777892985
  37     -0.13530674758741
  38    0.0062289580381374
  39    -0.0095640751039105
  40    0.0043521839609508
  41    -0.0036667250312997
  42    0.0015079868117179
  43    -0.035707120626778
  44    -0.039770363035281
  45    -0.001463374525868
  46    0.0005805815003675
  47    -0.0013706079544727
  48    -0.0048253427958777
  49    -0.0066148258165878
  50    -0.0014235514659661
  51    0.00028836784465015
  52    -0.00035945143284695
  53    -0.0084911443679773
  54    -0.012713713028892
  55    0.0019126581411088
  56    -0.0013935181342941
  57    0.00097384159907365
  58    0.00039226387136819
  59    -0.0024380136163287
  60    -0.013690647464886
  61    -0.0062927557831249
  62     0.004230175319561
  63    -0.0056126075026706
  64    -0.0040650686766205
  65    0.0074834169199333
  66    -0.0064526914579902
  67    3.0804003644107e-05
  68    0.00043595267381965
  69    6.6281885792913e-05
  70    0.00052262665835637
  71    -0.00044821227608378
  72     0.011512044744806
  73    -0.030140815829022
  74    -0.0045576021133107
  75    -0.00030657530449098
  76    -0.0023469691513588
 Sym= A
 Ene=               6
 Spin= Alpha
 Occup=    1.00000
   1    -0.0018726322396472
   2    -0.0055666404109968
   3    -0.0010200058218135
   4      0.01043223641529
   5    0.0039937129862125
   6    0.0013881346142177
   7     0.034221536786159
   8    0.0024420495458571
   9     0.015616477013705
  10    -0.00068572746319304
  11    -0.019102532084212
  12    -0.0061656236167709
  13    -0.022640244871104
  14     0.018331892579608
  15    -0.00040398495281823
  16    -0.026682094862517
  17    -0.085372231819166
  18     0.034622279678279
  19    -0.011631729364835
  20     0.001817265218623
  21      0.01777330378769
  22    -0.0051894854653213
  23    -0.0081431647109739
  24    0.0003516287783465
  25    -4.8476822505367e-05
  26    -0.00097153176110015
  27    -0.00060505627636452
  28    0.00093381572262148
  29    -0.00045236399127139
  30    0.0022968928391989
  31     0.013961764544235
  32    -0.0062869122393952
  33    0.0016224839113343
  34    -0.0068972846871483
  35    -0.004269278352452
  36    0.00013645680145086
  37    -0.010008333856579
  38    0.00032847069638113
  39    -0.00062866964853913
  40    0.00028140963209619
  41    -0.0003161386556597
  42    4.4079060636456e-05
  43     0.009469413521508
  44     0.013213399467329
  45    0.0019736481155832
  46    0.00018761185473749
  47    0.0017543001928047
  48    -0.011531583935198
  49     0.029932851546621
  50    -0.0046002343837896
  51    0.0019592636977026
  52    -0.0013302800293683
  53     0.032041105810716
  54     0.037330085019529
  55    -0.0015648047140717
  56    0.00052700313280219
  57    -0.0013391910129295
  58    -0.0014406030966096
  59     0.018270647219954
  60     0.033967735139041
  61      0.59822332049431
  62       0.2882027335334
  63     0.035153916564354
  64      0.42403168611762
  65      0.20111248411196
  66     0.026224732168053
  67    0.00063104219219268
  68    0.0072633842445629
  69    0.0029049201550358
  70    0.0077553143951408
  71    -0.0066182003721652
  72    0.0064060402074354
  73    0.0090880219394346
  74    -0.0014443686961844
  75    0.00023420942823052
  76    -0.00038876358875767
 Sym= A
 Ene=               7
 Spin= Alpha
 Occup=    1.00000
   1    0.0012724254453452
   2     0.002179408916324
   3    -0.014176904785851
   4    -0.0043618526260344
   5    0.0068162074123769
   6    0.0082530164055051
   7    -0.016397732383481
   8     0.022293582715829
   9     0.022168324691939
  10    -0.030922356299337
  11    -0.00072409142319931
  12    0.0083349476968606
  13    -0.010729585818028
  14    -0.011968094393868
  15    0.00011595887517697
  16    0.0085241337735113
  17     0.028664688213447
  18    -0.011736078538692
  19    0.0011984865768097
  20    -0.0011616070026558
  21    -0.017268525734555
  22    -0.0059550237334626
  23    0.0083243480978271
  24    -0.00099500924167539
  25    0.0011073209036528
  26    0.00074000094283612
  27    8.4565781972052e-05
  28    0.00040163728502394
  29    0.0011824981042416
  30    0.0018966642432797
  31    -0.0077097788626777
  32    -0.0002483427234295
  33    -0.00035626315813062
  34    0.0031218279242124
  35    0.0039843886137675
  36    0.00072283514812449
  37    0.0047632964851284
  38    -4.8038965477045e-05
  39    9.9822463477099e-05
  40    -6.1625875263844e-05
  41    -0.00014071944438365
  42    4.443154840056e-05
  43    -0.00011903027330425
  44    -0.0034587491725251
  45    -0.0019895939031664
  46    0.00051681591312441
  47    -0.0006881504847246
  48    0.0052650109488187
  49    0.0016786629652821
  50    0.0006876852711256
  51    -0.00023744144171668
  52    0.0013941904500633
  53     0.032621720477881
  54     0.039092950054765
  55    0.00071263547971313
  56    9.6012638954717e-05
  57    -0.0014316048941776
  58    0.00050879535750708
  59    0.0010972698062696
  60    -0.0023737999483898
  61     -0.20101887914138
  62      0.35500411210142
  63      0.52613523224511
  64     -0.14238591429457
  65      0.25191602608341
  66      0.37230454304925
  67     0.010540260962294
  68     0.001280119802504
  69    -0.0033415168128668
  70    0.0036482505173051
  71    0.0053599569786614
  72    -0.045022321669234
  73    -0.052710883738281
  74    0.00046599473855593
  75    -0.0018445189977614
  76    0.00022576059137696
 Sym= A
 Ene=               8
 Spin= Alpha
 Occup=    1.00000
   1    -0.0019281146107854
   2     -0.15254289592451
   3      0.01071566869857
   4      0.09607483883343
   5     -0.21830404947398
   6      0.18464185956137
   7     0.026523441445459
   8    -0.032638309187589
   9     0.031542278796569
  10    -0.0040844619210018
  11    -0.018234319484294
  12     0.045142980988119
  13     0.020956881462568
  14     0.022807458971097
  15    0.00078161302189985
  16     0.017958306878896
  17    -0.016855039430973
  18    -0.021930142890441
  19    0.0050323754706809
  20    0.0061937112384161
  21    -0.0082682579202003
  22    -0.012227982482916
  23    0.0064294419693805
  24    6.1847482049027e-05
  25    -0.0068735304589608
  26    -0.0033814975180008
  27    -0.0036524794046522
  28    0.0089985681564817
  29    -0.0004779110703848
  30    -0.0054008220152169
  31    -0.0074124096898832
  32     0.009865929147913
  33    -0.00013145268817309
  34    0.0071457074856262
  35     0.010812504291012
  36    0.0019087265412255
  37     0.003352384090979
  38    -9.58338783221e-05
  39    0.00038994547409145
  40    -0.00032700975117915
  41    0.00032722817913669
  42    -4.9374895279553e-05
  43    -0.0081639001959552
  44    -0.019169540431854
  45    -0.0010272436152003
  46     0.001430802018537
  47    -0.00032760431726749
  48      0.01312298193064
  49     0.032848880578634
  50    -0.0010796768416224
  51    0.00044881736291594
  52    0.00067881790836742
  53     0.010557004020318
  54     0.023799764647405
  55    0.0014348062223525
  56    -0.0093981213046508
  57    0.0048110425024193
  58    0.0042655790144947
  59     -0.15191638613069
  60     -0.12235819091125
  61      -0.1537487296819
  62      0.36986047653913
  63     -0.30803764317811
  64      -0.1016681110526
  65      0.24370165319495
  66     -0.20285509031159
  67    -0.0011334273572235
  68    -0.0069362147522968
  69     0.016223275485127
  70     0.007961977627879
  71    0.0084405611644283
  72    0.0094968357076312
  73     0.015472422970229
  74    0.0010155339763539
  75    -0.0065403289804248
  76    0.0079968144844694
 Sym= A
 Ene=               9
 Spin= Alpha
 Occup=    1.00000
   1    0.00074886461479245
   2     0.017363527881427
   3    -0.017357797189351
   4     0.021951745826724
   5    0.0069864910071596
   6    -0.001836088370772
   7    0.0082485758642831
   8    -0.0032856820353834
   9    -0.014094167409645
  10    0.0046310311467653
  11    -0.011315931867412
  12    0.0011617180932565
  13    -0.00093335752720197
  14    -0.00049522966667097
  15    -0.001935685223483
  16     -0.15028172726021
  17     0.012085092718101
  18    -0.094671688334242
  19    0.0009011135260219
  20     -0.28762256857741
  21    -0.026009866281514
  22    0.0030920848324272
  23    -0.045925250207222
  24    -0.049718025381904
  25    -0.029156400319732
  26    0.0010083896658156
  27    -0.0054690467383483
  28    -0.00065026626534256
  29    0.0042518333124393
  30     -0.15202366499838
  31     -0.12247856305026
  32      0.15422842929754
  33    0.0017492564712142
  34      0.48135021983992
  35      0.10190597513399
  36    0.0012576498646004
  37      0.31717091875147
  38    -0.017980252566635
  39    -0.010944143018186
  40    -0.00013358699181933
  41    -0.0018022287127612
  42    -0.00011013259549816
  43      0.01280887408889
  44     0.024237051205421
  45    -0.0014972555803624
  46    -0.002132052464657
  47    -0.010222256142333
  48     0.011531702515771
  49     0.015938471858645
  50    -0.0010612034829769
  51    0.0017151647862465
  52    -0.010090288944046
  53    -0.0071893529755188
  54    -0.018700815624896
  55     0.001065564189704
  56    0.0007111759840971
  57    0.0012919617478457
  58    -0.00047616139275662
  59    -0.0054004774014427
  60    -0.0074071716369217
  61    -0.0099210752284667
  62    0.0054500250303362
  63    -0.0045529885847523
  64    -0.010867903676266
  65    0.0038949572115976
  66    -0.0004787674677142
  67    7.6164700190291e-05
  68    0.00028133273246657
  69    -0.00012854450311129
  70    0.00043235263155618
  71    -0.00026885402947915
  72     0.011405303683687
  73     0.032445843085611
  74     0.001003908890997
  75    0.0008178590842429
  76    2.155276752552e-05
 Sym= A
 Ene=              10
 Spin= Alpha
 Occup=    1.00000
   1    -8.9694463014678e-05
   2    0.0012874804674244
   3    0.0034852340557129
   4    0.0040378337070629
   5    0.0011385586218993
   6    -0.0040248635771007
   7     0.014226310891501
   8    -0.0040666508282245
   9    -0.014206067278928
  10    -0.00040299609590867
  11    -0.0028927132181361
  12    0.0001976725893137
  13    0.00027451859520455
  14    2.8002033992121e-05
  15    -0.0067413635800741
  16    -0.036093747996911
  17    -0.027220280633743
  18    -0.016981297511456
  19    0.00021514309616313
  20    -0.051262082181415
  21     0.002404755487263
  22    0.0013731200313543
  23    -0.00012123208798016
  24     0.001295109105589
  25    0.0021820008837396
  26    -0.00024477918483496
  27    0.00062551017179178
  28    -0.00030351239653628
  29     0.005591523241669
  30      0.46852937032582
  31      0.54920026095143
  32     0.098993751157671
  33    -0.0087073082457584
  34      0.22170628233113
  35     0.069090270472459
  36    -0.0065659860615157
  37      0.15669538056401
  38    -0.0039761322294713
  39    -0.0029031663161831
  40    0.00010703114603684
  41    -0.0004833251510799
  42    5.9523212362508e-05
  43    -0.00057701491014009
  44     0.012477716591972
  45    -0.0012971810935298
  46    0.00083781464471441
  47    -0.0023994389573094
  48    0.00025320792770181
  49     0.010749840626912
  50    -0.0012435997969558
  51    -0.00092535074157949
  52    -0.0023276429162085
  53    -0.0023063767717189
  54    -0.0077811368059142
  55    -0.0001609881568358
  56    2.471551544878e-05
  57    0.00024168894262883
  58    -7.9866862452743e-05
  59    -0.0012948381850125
  60    -0.0029551560006669
  61    -0.0025190103738407
  62    0.0014899829204354
  63    -0.00059848018185171
  64    -0.0032622361003092
  65    0.0014156039704831
  66    0.00072975452304907
  67    -4.999779276329e-05
  68    5.014853447343e-05
  69    -4.655140944931e-05
  70    0.00010003442909541
  71    -0.00014046564921918
  72    0.0020386018282445
  73     0.022395713573087
  74    0.00095196922656532
  75    -5.5285068941172e-05
  76    -0.00059253527015221
 Sym= A
 Ene=              11
 Spin= Alpha
 Occup=    1.00000
   1    -0.0067412925366424
   2    -0.036140581449878
   3    -0.027270707966062
   4     0.016965270732485
   5    -0.039123253905775
   6      0.03308421597237