[Molden Format]
made by pyscf v[2.0.1]
[Atoms] (AU)
C   1   6     0.00000000000000     0.00000000000000     0.00000000000000
C   2   6     2.85207482267819     0.00000000000000     0.00000000000000
F   3   9     3.65415199667903     0.00000000000000     2.45977207315200
H   4   1     3.58561868306314    -1.67891019462705    -0.93677358840720
H   5   1     3.58561868306314     1.67891019462705    -0.93677358840720
H   6   1    -0.73354386038494     1.49073474976653    -1.21408158844390
F   7   9    -0.80207717400084     0.42713493797885     2.42240260828301
H   8   1    -0.73354386038494    -1.81607280279338    -0.63100219691706
[GTO]
1 0
 s    8 1.00
                  6665  0.00069158396281299
                  1000  0.0053257961529341
                   228   0.027060721042034
                 64.71    0.10165684614077
                 21.06     0.2745748236174
                 7.495    0.44829431892377
                 2.797    0.28490261071525
                0.5215   0.015194859206082
 s    8 1.00
                  6665  -0.00029326965268655
                  1000  -0.0023180354739745
                   228  -0.011499786038565
                 64.71  -0.046826727009787
                 21.06   -0.12846616875047
                 7.495   -0.30126627246289
                 2.797   -0.25563070233011
                0.5215      1.093793361012
 s    1 1.00
                0.1596                   1
 p    3 1.00
                 9.439   0.056979251590039
                 2.002    0.31320721150073
                0.5456    0.76037674173753
 p    1 1.00
                0.1517                   1
 d    1 1.00
                  0.55                   1

2 0
 s    8 1.00
                  6665  0.00069158396281299
                  1000  0.0053257961529341
                   228   0.027060721042034
                 64.71    0.10165684614077
                 21.06     0.2745748236174
                 7.495    0.44829431892377
                 2.797    0.28490261071525
                0.5215   0.015194859206082
 s    8 1.00
                  6665  -0.00029326965268655
                  1000  -0.0023180354739745
                   228  -0.011499786038565
                 64.71  -0.046826727009787
                 21.06   -0.12846616875047
                 7.495   -0.30126627246289
                 2.797   -0.25563070233011
                0.5215      1.093793361012
 s    1 1.00
                0.1596                   1
 p    3 1.00
                 9.439   0.056979251590039
                 2.002    0.31320721150073
                0.5456    0.76037674173753
 p    1 1.00
                0.1517                   1
 d    1 1.00
                  0.55                   1

3 0
 s    8 1.00
                 14710  0.00072067370873197
                  2207  0.0055504869689163
                 502.8   0.028254207662589
                 142.6    0.10639582836653
                 46.47    0.28668420124307
                  16.7    0.44843796582416
                 6.356    0.26464118141135
                 1.316   0.015326060993048
 s    8 1.00
                 14710  -0.00032119389049893
                  2207  -0.0025461915683188
                 502.8  -0.012643359507821
                 142.6   -0.05195749170489
                 46.47   -0.14344713812646
                  16.7   -0.33243762329603
                 6.356   -0.21865906750347
                 1.316     1.0955904138622
 s    1 1.00
                0.3897                   1
 p    3 1.00
                 22.67   0.064834021493887
                 4.977    0.34053535983101
                 1.347    0.73464640679382
 p    1 1.00
                0.3471                   1
 d    1 1.00
                  1.64                   1

4 0
 s    3 1.00
                 13.01   0.033498726389998
                 1.962    0.23480080117413
                0.4446     0.8136829578829
 s    1 1.00
                 0.122                   1
 p    1 1.00
                 0.727                   1

5 0
 s    3 1.00
                 13.01   0.033498726389998
                 1.962    0.23480080117413
                0.4446     0.8136829578829
 s    1 1.00
                 0.122                   1
 p    1 1.00
                 0.727                   1

6 0
 s    3 1.00
                 13.01   0.033498726389998
                 1.962    0.23480080117413
                0.4446     0.8136829578829
 s    1 1.00
                 0.122                   1
 p    1 1.00
                 0.727                   1

7 0
 s    8 1.00
                 14710  0.00072067370873197
                  2207  0.0055504869689163
                 502.8   0.028254207662589
                 142.6    0.10639582836653
                 46.47    0.28668420124307
                  16.7    0.44843796582416
                 6.356    0.26464118141135
                 1.316   0.015326060993048
 s    8 1.00
                 14710  -0.00032119389049893
                  2207  -0.0025461915683188
                 502.8  -0.012643359507821
                 142.6   -0.05195749170489
                 46.47   -0.14344713812646
                  16.7   -0.33243762329603
                 6.356   -0.21865906750347
                 1.316     1.0955904138622
 s    1 1.00
                0.3897                   1
 p    3 1.00
                 22.67   0.064834021493887
                 4.977    0.34053535983101
                 1.347    0.73464640679382
 p    1 1.00
                0.3471                   1
 d    1 1.00
                  1.64                   1

8 0
 s    3 1.00
                 13.01   0.033498726389998
                 1.962    0.23480080117413
                0.4446     0.8136829578829
 s    1 1.00
                 0.122                   1
 p    1 1.00
                 0.727                   1

[5d]
[7f]
[9g]

[MO]
 Sym= A
 Ene=               0
 Spin= Alpha
 Occup=    1.00000
   1       1.0022355073228
   2    -0.00076410612995791
   3     -0.01149558271092
   4    0.00056287973049563
   5    0.00042133310627185
   6    0.0022233306501893
   7    -0.00082079438655814
   8    0.00021897302448819
   9    0.0012811888050871
  10    7.5008390432999e-05
  11    1.2923196026815e-05
  12    -4.887267188068e-06
  13    -0.00011582367806826
  14    -6.7460810925387e-06
  15    -0.00012636106734747
  16    -0.00065384444747514
  17    0.0024929480457421
  18    0.0011503145012825
  19    -6.0641380064178e-06
  20    -5.838181183877e-05
  21    -0.00076304881760826
  22    9.982012502551e-06
  23    -0.00015806146680116
  24    0.00020171457273938
  25    4.5604586071396e-05
  26    1.2919578753662e-05
  27    -0.00031914370029665
  28    4.506756860852e-06
  29    -4.0016030409407e-05
  30    -5.8860213580885e-05
  31    1.7727957641197e-05
  32    -0.00010549602371144
  33    -4.9705187349404e-06
  34    2.6584350186424e-05
  35    -0.00032322096939091
  36    -5.5925381511229e-06
  37    8.5350853522032e-05
  38    -2.1527243976152e-05
  39    -9.1574674256943e-08
  40    1.7163223747284e-06
  41    3.0001407625118e-05
  42    -2.7575977227006e-07
  43    0.00010529137367461
  44    0.00023561014327242
  45    -3.4023217316367e-05
  46    3.6824722788647e-05
  47    1.0616102370833e-05
  48    6.3034889407066e-05
  49    0.00016306297058761
  50    -3.1448305148904e-05
  51    -3.3511027429981e-05
  52    9.4252021257285e-06
  53    -0.003060600339819
  54    0.00081096411838755
  55    -0.00011566925413972
  56    0.00047036353212104
  57    -0.00042407379264619
  58    0.00013869524417174
  59    7.9694278300635e-06
  60    -0.00024699836426924
  61    -0.00037816346869677
  62    0.00016470373883432
  63    0.00092694571432505
  64    -0.0004834680890081
  65    0.00025242637955418
  66    0.0014113946155809
  67    -0.0002863122922807
  68    0.00015507748888754
  69    -9.3381605911214e-05
  70    -1.6299456486275e-05
  71    2.7380032577076e-05
  72    -0.0030429176013849
  73    0.00080847524350196
  74    -0.00010793111256343
  75    -0.00057209928133874
  76    -0.00023076231097516
 Sym= A
 Ene=               1
 Spin= Alpha
 Occup=    1.00000
   1    -0.00012545780173775
   2    -0.00065710649643933
   3    0.0024929124108607
   4    -0.0011427817822627
   5    -4.4666148075574e-06
   6    -5.1461250967157e-05
   7    0.00076697899749731
   8    -3.7365445926867e-05
   9    -0.00015324320875998
  10    0.00020557766679536
  11    -4.4649976795734e-05
  12    -6.8679467591579e-06
  13    -0.00031820810307858
  14    -3.4918695065857e-06
  15       1.0022358625207
  16    -0.00081428910422052
  17    -0.011524575908265
  18    -0.00059339446403882
  19    -2.907467332216e-05
  20    0.0022969409412125
  21    0.00080926666456942
  22    6.5839847966822e-06
  23    0.0013141690869616
  24    7.4432102582015e-05
  25    -1.0487618320737e-05
  26    6.9842037570715e-06
  27    -0.0001146350852952
  28    -8.8661539411016e-06
  29    0.00013916061082704
  30    1.0704818980862e-05
  31    -0.00024370518484672
  32    0.00037935977685371
  33    -1.2175320504628e-06
  34    0.00093902614665314
  35    0.00048648337442363
  36    -3.4715252931488e-06
  37    0.0014303805383972
  38    -0.00030136303221801
  39    -0.00015728761884912
  40    1.5968052716209e-07
  41    -2.4375780312782e-05
  42    3.9133132932176e-08
  43    -0.0031081346858265
  44    0.00079966974366242
  45    0.00011682759687534
  46    -0.00054149013941451
  47    -0.00033736949904756
  48    -0.0030905940198915
  49    0.00079733344687813
  50    0.00010907686956159
  51    0.00052798688446167
  52    -0.00032802613154018
  53    9.7888435172368e-05
  54    0.00023297193207309
  55    3.402095067459e-05
  56    -3.3620179385198e-05
  57    1.653801906324e-05
  58    -4.0053941782087e-05
  59    -5.9009575071832e-05
  60    1.7306637563425e-05
  61    0.00010477548969613
  62    9.6852960921205e-06
  63    2.5373440253403e-05
  64    0.00032160447194697
  65    2.0497064032942e-05
  66    8.2773568252634e-05
  67    -2.0926917585558e-05
  68    -1.0539967719429e-08
  69    -2.8593478026196e-06
  70    3.0475267285446e-05
  71    -2.86436642301e-07
  72    5.7333900781572e-05
  73    0.00016067577854478
  74    3.1491996910621e-05
  75    3.3907576558392e-05
  76    3.5415320219632e-06
 Sym= A
 Ene=               2
 Spin= Alpha
 Occup=    1.00000
   1    -6.4881972583102e-05
   2    3.1279985356263e-06
   3     0.003327233357548
   4    -0.00022411726663631
   5    8.4770329886207e-05
   6    0.00048387377098895
   7    0.00014523690972391
   8    0.0002072110292716
   9    0.0012829599234775
  10    -1.4786547073647e-05
  11    2.282375430929e-05
  12    -6.8937053859744e-06
  13    -8.1837541192258e-06
  14    -1.2150865673131e-06
  15    3.9828701018734e-05
  16    3.9091712938557e-05
  17    -0.0012936490276221
  18    0.00010921853468309
  19    -7.06090343138e-06
  20    4.8447616229389e-06
  21    0.00058691065671126
  22    -1.815780950798e-05
  23    -0.0003893002082053
  24    8.0509693750387e-05
  25    3.1990042874867e-05
  26    2.1223805483775e-05
  27    8.7447336943276e-06
  28    -2.165210164184e-06
  29    -4.6234716209236e-05
  30    -9.0432658132843e-05
  31    0.00026310836557469
  32    1.4324174319683e-05
  33    -5.0964129748756e-06
  34    4.1311877205947e-05
  35    -5.1502883047218e-05
  36    1.7562782569121e-05
  37    -6.4122344970246e-05
  38    8.5601669922916e-08
  39    -1.4692656212961e-06
  40    1.6726898268026e-06
  41    -1.4563411768958e-05
  42    8.8877517425035e-07
  43    8.1664243494645e-05
  44    4.1136027556806e-05
  45    -3.9739245057209e-05
  46    -4.3808846388465e-06
  47    5.9393372099636e-05
  48    0.00010876033775556
  49    -5.5145531364475e-05
  50    -1.9382249707869e-05
  51    -1.5644801323467e-06
  52    5.073790847807e-05
  53    -0.00027808924945172
  54    -0.00018005187571272
  55    -9.4470288350988e-06
  56    -3.23741778517e-06
  57    -0.00016769955822076
  58       1.0009674295086
  59    -0.0035735785042019
  60    -0.010177555837713
  61    0.0010185549792263
  62    -0.00047490067848946
  63    -0.0024504823348731
  64    8.1806479638785e-05
  65    1.1214794637121e-05
  66    0.00027857448722215
  67    -0.0001557648342409
  68    9.2376752585611e-05
  69    -4.782599713861e-05
  70    -1.3167620695757e-06
  71    1.4886092676882e-05
  72    -0.00028516623002979
  73    -0.00020829212177026
  74    -1.0780466468086e-05
  75    -5.35836818535e-05
  76    -0.0001588547031716
 Sym= A
 Ene=               3
 Spin= Alpha
 Occup=    1.00000
   1    3.9795217495182e-05
   2    3.8790342920909e-05
   3    -0.001293533693878
   4    -0.00010911320436829
   5    7.3775669040697e-06
   6    3.7000922308452e-06
   7    -0.00058669918703051
   8    -4.9861472672487e-05
   9    -0.00038652542967287
  10    8.2906010414679e-05
  11    -3.1197481565804e-05
  12    5.4344608205235e-06
  13    1.0185641956521e-05
  14    -7.6857281171073e-06
  15    -6.4880642996401e-05
  16    5.1677174771151e-06
  17     0.003328378114407
  18    0.00022559536762604
  19    3.4720831144905e-07
  20    0.00048931427223353
  21    -0.00014440657381775
  22    1.8771228916717e-05
  23    0.0012988041054312
  24    -1.6166233519248e-05
  25    -2.218165597474e-05
  26    8.382855343124e-07
  27    -8.9011401897708e-06
  28    -5.1162629401526e-06
  29       1.0009674197395
  30    -0.0035740016405454
  31     -0.01017805557505
  32    -0.0010143554036886
  33    4.449740036439e-05
  34    -0.0024963400062663
  35    -7.8961035385997e-05
  36    3.8995058481987e-05
  37    0.00027592729320556
  38    -0.0001627970921568
  39    -9.3652334146365e-05
  40    -1.4606285617407e-06
  41    -5.4399328370049e-06
  42    -1.3960316708874e-06
  43    -0.00027574074717587
  44    -0.0001794334686344
  45    9.3750374412184e-06
  46    -2.5720110650667e-05
  47    -0.00016566004427172
  48    -0.00028341216013838
  49    -0.00020811204426029
  50    1.0725783200452e-05
  51    2.4978959432362e-05
  52    -0.00016571344730345
  53    8.1085452955339e-05
  54    4.0897515446878e-05
  55    3.9716349390971e-05
  56    1.4659202044256e-05
  57    5.7711220087075e-05
  58    -4.6225379292461e-05
  59    -9.0316481598733e-05
  60    0.00026329289507155
  61    -1.4167557753249e-05
  62    1.217331058589e-05
  63    3.9704043278564e-05
  64    5.1613806737486e-05
  65    -2.8411077689582e-05
  66    -6.0201875692509e-05
  67    9.6177777513819e-07
  68    1.2891102981764e-06
  69    -4.0302510267312e-06
  70    -1.4071765172017e-05
  71    1.1329279124679e-06
  72    0.00010884875670404
  73    -5.5078552818875e-05
  74    1.9398381820948e-05
  75    1.0345302580811e-05
  76    4.9707719912882e-05
 Sym= A
 Ene=               4
 Spin= Alpha
 Occup=    1.00000
   1    0.00046142425743171
   2    0.0092744359414639
   3     0.029141448825708
   4     0.015936976551847
   5    -0.0010984268185114
   6    4.1456473951173e-05
   7     0.015953350074001
   8    -0.0035431091096632
   9    -0.012519507679054
  10    -0.00058541566094693
  11    0.00057353048050717
  12    0.00094029289542132
  13    0.00031880272521113
  14    -0.00083508961802389
  15    0.00075357699072496
  16     0.001303594309816
  17    -0.0069009184372937
  18    0.0046939510431879
  19    0.0089245543604245
  20    -0.00072251225980568
  21     0.016144349795251
  22     0.033407026743161
  23    0.0051837267821947
  24    -0.0065354585186263
  25     0.011149225010091
  26     0.033154086494652
  27    0.0052637721185671
  28    0.0080407244464126
  29    0.00046857299184014
  30    -0.0010427774707801
  31    -0.0060784132201916
  32      0.24131486190211
  33      0.61624071030551
  34    -0.080520227066509
  35      0.16992041433697
  36      0.43472002771094
  37    -0.055051445042108
  38     0.002623645784584
  39    -0.0041730540669088
  40    -0.011456456929003
  41    -0.0012264266009052
  42    -0.0039569196020324
  43     0.031691579425926
  44     0.038580757449051
  45    -0.00079859517734525
  46    -0.00093840654269853
  47    0.00073612957761786
  48    -0.048431555835813
  49    -0.056332194015263
  50    -0.00059534111573617
  51    -0.0012592832268715
  52    -0.0015911581581073
  53    -0.003032023297584
  54    -0.0090052914035974
  55    -0.00059038043478157
  56    0.00093477929968836
  57    9.5487079738294e-05
  58    -0.00019379931106566
  59    0.0021670617856895
  60    0.0077653675696242
  61    0.0032205136625063
  62     -0.00556451942304
  63    0.00049419127564761
  64    0.00070873513843786
  65    -0.0010374528614537
  66    -0.0021575200076295
  67    0.00036335321371556
  68    -0.00050246958078982
  69    0.00016709228168837
  70    -0.00029437557871004
  71    0.00056674331393614
  72    -0.0017463091446043
  73    -0.0063039775142339
  74    0.0021491238071746
  75    -0.0002202359102519
  76    0.00064720627085388
 Sym= A
 Ene=               5
 Spin= Alpha
 Occup=    1.00000
   1    -0.00065061678372023
   2    -0.0016432178661566
   3     0.005159055531074
   4    0.0043347232680686
   5     0.012233105871503
   6    -0.0010648073480494
   7     0.013818257846869
   8     0.033893164466798
   9    -0.010417424010603
  10    -0.0043303801352224
  11     0.011043578410388
  12     0.032525733587283
  13    -0.010448669797936
  14    -0.0064962426236586
  15    -0.00043493537759037
  16    -0.0079746886078082
  17    -0.025224354416471
  18      0.01408648697668
  19    -0.0014064368907714
  20    0.00016276216171799
  21     0.013326786976075
  22    -0.0018172135841279
  23     0.012163931057915
  24    0.00024515566861856
  25    0.00032628649768495
  26    0.0010050333384505
  27    -0.0004877566877578
  28    0.00076998055843384
  29    0.00024070368950011
  30    -0.0017190928286893
  31    -0.0072245937934205
  32    0.0025291059194416
  33    -0.0055177405287484
  34    0.00060512732977807
  35    0.00060138584444085
  36    -0.00053677102869769
  37    0.0021641061706391
  38    -0.00034007677777036
  39    -0.00033118162898439
  40    0.00010153909679614
  41    0.00019935889665736
  42    -0.00063649676964412
  43    0.0032829860279188
  44    0.0087682591341386
  45    -0.00072013427986569
  46    0.00087561662776087
  47    -0.00020535710162708
  48    0.0013342911602264
  49    0.0057266814563236
  50    0.0020976215439442
  51     -0.00028793150405
  52    -0.00053656734348277
  53    -0.031611310415635
  54    -0.039781752016461
  55    -0.00063412774576259
  56    -0.0011350360462743
  57    -0.00054984572415022
  58    -0.00042205422283636
  59    0.00060969254642637
  60    0.0049989191057799
  61      0.21222598319802
  62      0.63054785572851
  63    -0.039505188112834
  64      0.14945156215636
  65      0.44433333515668
  66    -0.029332987538618
  67    0.0012270029975906
  68    -0.0043160388245549
  69    -0.011520794620442
  70    0.0031170620527803
  71    0.0033354895251659
  72     0.045378384530552
  73     0.055031801361816
  74    -0.00061763763411143
  75    -0.0011157661758407
  76    0.0016864013045636
 Sym= A
 Ene=               6
 Spin= Alpha
 Occup=    1.00000
   1    0.00039245277320717
   2     0.021309268373358
   3     0.075119989440609
   4      0.03818372792486
   5    0.00010526752776251
   6    0.0035345042046582
   7     0.053234201248197
   8    0.0050258267390948
   9    -0.014229842807048
  10    -0.0010365867841416
  11    0.0019029556120001
  12    -4.4405318177384e-05
  13    0.00031551538143589
  14    0.00075861009870949
  15     0.002196383571376
  16    0.0031852125965586
  17    -0.028518696641521
  18     0.013437701818139
  19    -0.003729291016389
  20    -0.0020295870634012
  21     0.049387446736739
  22    -0.014105003263783
  23     0.012597661735996
  24    -0.016052770653384
  25     0.027349385275975
  26    -0.013693756549753
  27      0.01225830875248
  28    -0.003140549485487
  29    0.00091064997128774
  30    -0.017136918202644
  31    -0.031202417012554
  32      0.58410588859662
  33     -0.25478574529023
  34     -0.19695747948356
  35      0.41059230117041
  36     -0.17930075280768
  37     -0.13425928037986
  38    0.0060928907495494
  39    -0.010178990905664
  40    0.0047826385516005
  41    -0.0032326308508879
  42    0.0014706921437861
  43    -0.035827889275774
  44    -0.042439932486253
  45    -0.0016385145982214
  46    0.00095586774735102
  47    -0.0014634483907694
  48    -0.0028995073570139
  49    -0.0029792379198966
  50    -0.0017054823719053
  51    3.7475845246894e-05
  52    -0.00060320499601907
  53    -0.0074150452450932
  54    -0.011686080823891
  55    0.0023293652753467
  56    0.0010453510259789
  57     0.000581933370737
  58    0.0010749260304034
  59    0.0093962237302946
  60     0.010376258080981
  61     0.013925181952302
  62    0.00010373324144124
  63    0.0021729788564211
  64    0.0018410717944715
  65    -0.0023265550004061
  66    -0.0027734407880682
  67    0.0012126856928772
  68    -0.0013227637304417
  69    0.00020642400845115
  70    -0.0014733165662123
  71    -5.0899817262554e-05
  72    -0.0029773345093342
  73    -0.0045632848182858
  74    0.0010345542144986
  75    -0.00093144443229898
  76    0.0014163519851551
 Sym= A
 Ene=               7
 Spin= Alpha
 Occup=    1.00000
   1    -0.0022293685738332
   2    -0.0045212353324954
   3     0.027944629087586
   4     0.014489069999949
   5    -0.0037585327305063
   6    0.0040228955360056
   7     0.050415101375981
   8    -0.014788605715137
   9    -0.0099372903545981
  10     0.019565175901106
  11     0.026881212022806
  12    -0.0085163810139832
  13    -0.010604302237411
  14    0.0075604790671714
  15    -0.00039237632045408
  16    -0.021226555352701
  17    -0.076062293175894
  18     0.038973203625028
  19    -0.00065057395550897
  20    -0.0036925608226362
  21     0.053921557397053
  22    0.0073101107210673
  23      0.01362455481219
  24    0.0010149335469779
  25    0.0019562558218216
  26    0.00026863942311118
  27    -0.0003972073542586
  28    -0.00032640190833664
  29    -0.0010688592263632
  30    -0.0095530532719077
  31    -0.010841845920911
  32     0.014110010781056
  33    -0.00054203879491101
  34    -0.0020216045930123
  35    0.0019280263152211
  36    -0.0018215025559963
  37    0.0033289405003708
  38    -0.0012719095896831
  39    -0.0013273879357925
  40    9.2322238110406e-05
  41    0.0014598507010354
  42    -0.00021039400293918
  43    0.0079275950721558
  44     0.012136798346874
  45    0.0022776711593776
  46    0.0010066554298422
  47    -0.00075325008303353
  48    0.0034117235841166
  49    0.0049842303606737
  50    0.0011286877877725
  51    -0.0012024785085425
  52    -0.0012528935574425
  53     0.032017485434737
  54     0.039810292671929
  55    -0.0017439163941796
  56    0.0012883642094021
  57    0.0011595556690269
  58    -0.00092380776858347
  59      0.01772378429757
  60     0.032050567282734
  61      0.59534189614088
  62      -0.1858439248331
  63      0.23608145445204
  64      0.41843770780168
  65     -0.13143377225253
  66      0.16174228107577
  67    -0.0072762656214426
  68    -0.010007719034206
  69    0.0026940445595447
  70    0.0026849956998356
  71    -0.0030615421844211
  72    0.0047208382221252
  73    0.0057430303918465
  74    -0.0017311689422263
  75    -2.7275321751259e-06
  76    0.00068940402138017
 Sym= A
 Ene=               8
 Spin= Alpha
 Occup=    1.00000
   1    -0.0031002062800231
   2      -0.1574249951706
   3     0.011519351349576
   4     0.097375380458726
   5    -0.050897027408436
   6     -0.28481185557338
   7     0.034120386091365
   8    -0.0092959017720847
   9    -0.051771532253747
  10    -0.047252274640724
  11     0.027810457551375
  12    -0.015991369727457
  13    -0.0039006182141262
  14    0.0051390737563576
  15    -0.00090904584534297
  16    0.0091568297616456
  17    -0.011117567437903
  18    -0.027702348598687
  19    0.00043084888449162
  20    -0.004746298470402
  21    -0.004076835291068
  22    9.1091771871801e-05
  23    -0.0023511375514491
  24    0.0058244582745583
  25     0.011750567350021
  26    0.00051308724027029
  27     -0.00173634619589
  28    0.0019065853102588
  29    -0.00037956053765687
  30    0.0037449193239089
  31    0.0091443005876036
  32    -0.0054069377003901
  33    -0.00022102645001282
  34    -0.0093134106573495
  35    -0.0066029733579974
  36    0.00034779349364337
  37    -0.0047058492111394
  38    -0.00018605595680332
  39    0.00023846259775224
  40    3.1699241449199e-05
  41    -0.00029187516223263
  42    5.5598600885222e-05
  43    -0.010389087835747
  44    -0.013506629192306
  45    -0.0015068616688553
  46    0.00021648060210019
  47    0.0015560158591892
  48    -0.0034492606868697
  49    -0.0088290680650966
  50    -0.0019232291133104
  51    -0.00045376897357326
  52    0.0013104587008596
  53    0.0081601034049282
  54     0.021649505812623
  55    0.0013241572178117
  56    0.00038694488487577
  57    -0.010471373643264
  58    0.0040464506202506
  59     -0.14893605424177
  60     -0.11332430304245
  61     -0.15435790902737
  62     0.081978334582193
  63      0.47169164663394
  64     -0.10275499193198
  65     0.053590109477059
  66      0.30914304140393
  67     -0.01753879956989
  68     0.010674578287714
  69    -0.0056202688704837
  70    -0.001245127139627
  71    0.0018259262540906
  72    0.0088985299296076
  73     0.022142158389023
  74    0.0012930418548196
  75    -0.0038432908024907
  76    -0.0096408174223098
 Sym= A
 Ene=               9
 Spin= Alpha
 Occup=    1.00000
   1    -0.00095218448001267
   2    0.0095788701425931
   3    -0.010898592872834
   4     0.027020571852392
   5    -0.00085677034364788
   6    -0.0052524418180158
   7    0.0038109158900829
   8    -0.0003612317399042
   9    -0.0024814851962083
  10    0.0057273040697307
  11    -0.011937885239012
  12    0.00091537191178943
  13    -0.0017655570847088
  14    -0.00017256658056815
  15    -0.0031273175637162
  16     -0.15534199217355
  17     0.012692761297515
  18    -0.095816424959872
  19    0.00074030665500762
  20     -0.29096299098866
  21    -0.033475851247279
  22    0.00020384862921261
  23     -0.05324494127162
  24    -0.049828665210469
  25    -0.028295071305731
  26    0.00036349386416868
  27    -0.0054375513516007
  28    0.00021399151930847
  29    0.0040268018310491
  30     -0.14909930216952
  31     -0.11349924449252
  32      0.15491134721552
  33    0.0012237934159532
  34      0.47878192353502
  35      0.10302163873212
  36    0.00093282644422543
  37      0.31384182112433
  38     -0.01834166926291
  39    -0.010854133872382
  40    -0.00012835815847954
  41    -0.0017418452446249
  42    -5.6576016467827e-05
  43     0.010264694770913
  44     0.022178540441246
  45    -0.0013699602917426
  46    -0.0019936754048213
  47    -0.010188492074413
  48     0.011048505186081
  49      0.02263106759459
  50    -0.0013429955255679
  51    0.0018984193493191
  52      -0.0101014205563
  53    -0.0093980711963948
  54     -0.01317570550532
  55    0.0015263700775699
  56    -1.8284197659646e-05
  57    0.0016120059597206
  58    -0.00038051086380152
  59    0.0037386899600151
  60    0.0091612950861271
  61    0.0054778427157822
  62    -0.0014340590686738
  63    -0.0091692905128445
  64     0.006725846075102
  65    -0.0012123222877803
  66    -0.0045183457392672
  67    -0.0001486693598364
  68    -0.00023563347505355
  69    -0.00013914505467011
  70    -0.00028276211413957
  71    1.6908919532003e-05
  72    -0.0031586781409325
  73    -0.0087536889870703
  74     0.001914184372983
  75    0.00072663093528912
  76    0.0012036836758285
 Sym= A
 Ene=              10
 Spin= Alpha
 Occup=    1.00000
   1    -0.007285228785325
   2    -0.037140492472958
   3    -0.024007722647366
   4     0.017376770368849
   5    -0.0089322454804306
   6    -0.050411409038064
   7    0.0024360634510218
   8    -0.00063608136890085
   9    -0.0042797413338624
  10    0.0014314404663065
  11    -0.0022395693874774
  12    0.00080379253180478
  13    0.0005707989755281
  14    -0.00047373287674712
  15    -0.0010415227939152
  16    -0.0012027137813201
  17     0.011365301376767
  18    -0.0047518261722741
  19    -0.00022855441413825
  20    -0.0037419773723881
  21    -0.007736767424793
  22    0.00029019232296714
  23    -0.0031284023562644
  24    0.00050271031694155
  25    0.0037635572397035
  26    -0.00018908099152851
  27    0.00017588356541225
  28    0.00057770016084729
  29    -0.00045285844497185
  30    -0.00086070550524082
  31    0.0023076432366919
  32    0.0023396846219385
  33    -0.00064770858918218
  34    -0.0044267485085869
  35    -0.00015478813168216
  36    5.404560771145e-05
  37    -0.0013399509344582
  38    -0.00018827591454784
  39    -0.00019103213316219
  40    1.7606036385113e-05
  41    0.00018721010120587
  42    -7.1188580399555e-05
  43    -0.0030576959643926
  44    -0.0038454632601936
  45    -0.00060948882977525
  46    0.00027785304746013
  47    0.00015577726440423
  48    -0.0018557028656807
  49    -0.0031766527234005
  50    -0.00030449653547087
  51    -0.00012428191357943
  52    -1.9999748550224e-06
  53    -0.0012081243294385
  54     0.012192204241967
  55    0.0012547949718887
  56    -0.0012177709670232
  57    -0.0020387532607437
  58     0.005567025590365
  59      0.47038705838402
  60      0.55237006726552
  61    -0.096037387178545
  62     0.044365066577572
  63      0.21548427694435
  64    -0.068417538573669
  65     0.031300435116048
  66      0.15068345951064
  67    -0.0038866774286442
  68    0.0026044821042946
  69    -0.0013632285070807
  70    -0.00040709145052568
  71    0.00051321580195097
  72    -0.00019830813843301
  73     0.013123384296156
  74    0.0012511035151857
  75    0.00048240262613793
  76    -0.0022740096744194
 Sym= A
 Ene=              11
 Spin= Alpha
 Occup=    1.00000
   1    -0.0010434452016133
   2    -0.0011093918500589
   3     0.011364445224753
   4     0.004631126999663
   5    -0.00037031488916571