[Molden Format]
made by pyscf v[2.0.1]
[Atoms] (AU)
C   1   6     0.00000000000000     0.00000000000000     0.00000000000000
C   2   6     2.85207482267819     0.00000000000000     0.00000000000000
F   3   9     3.65415199667903     0.00000000000000     2.45977207315200
H   4   1     3.58561868306314    -1.67891019462705    -0.93677358840720
H   5   1     3.58561868306314     1.67891019462705    -0.93677358840720
H   6   1    -0.73354386038494     1.25726408388254    -1.45450033377066
F   7   9    -0.80207717400084     0.84129159700793     2.31142966595619
H   8   1    -0.73354386038494    -1.89805495782401    -0.30605812297612
[GTO]
1 0
 s    8 1.00
                  6665  0.00069158396281299
                  1000  0.0053257961529341
                   228   0.027060721042034
                 64.71    0.10165684614077
                 21.06     0.2745748236174
                 7.495    0.44829431892377
                 2.797    0.28490261071525
                0.5215   0.015194859206082
 s    8 1.00
                  6665  -0.00029326965268655
                  1000  -0.0023180354739745
                   228  -0.011499786038565
                 64.71  -0.046826727009787
                 21.06   -0.12846616875047
                 7.495   -0.30126627246289
                 2.797   -0.25563070233011
                0.5215      1.093793361012
 s    1 1.00
                0.1596                   1
 p    3 1.00
                 9.439   0.056979251590039
                 2.002    0.31320721150073
                0.5456    0.76037674173753
 p    1 1.00
                0.1517                   1
 d    1 1.00
                  0.55                   1

2 0
 s    8 1.00
                  6665  0.00069158396281299
                  1000  0.0053257961529341
                   228   0.027060721042034
                 64.71    0.10165684614077
                 21.06     0.2745748236174
                 7.495    0.44829431892377
                 2.797    0.28490261071525
                0.5215   0.015194859206082
 s    8 1.00
                  6665  -0.00029326965268655
                  1000  -0.0023180354739745
                   228  -0.011499786038565
                 64.71  -0.046826727009787
                 21.06   -0.12846616875047
                 7.495   -0.30126627246289
                 2.797   -0.25563070233011
                0.5215      1.093793361012
 s    1 1.00
                0.1596                   1
 p    3 1.00
                 9.439   0.056979251590039
                 2.002    0.31320721150073
                0.5456    0.76037674173753
 p    1 1.00
                0.1517                   1
 d    1 1.00
                  0.55                   1

3 0
 s    8 1.00
                 14710  0.00072067370873197
                  2207  0.0055504869689163
                 502.8   0.028254207662589
                 142.6    0.10639582836653
                 46.47    0.28668420124307
                  16.7    0.44843796582416
                 6.356    0.26464118141135
                 1.316   0.015326060993048
 s    8 1.00
                 14710  -0.00032119389049893
                  2207  -0.0025461915683188
                 502.8  -0.012643359507821
                 142.6   -0.05195749170489
                 46.47   -0.14344713812646
                  16.7   -0.33243762329603
                 6.356   -0.21865906750347
                 1.316     1.0955904138622
 s    1 1.00
                0.3897                   1
 p    3 1.00
                 22.67   0.064834021493887
                 4.977    0.34053535983101
                 1.347    0.73464640679382
 p    1 1.00
                0.3471                   1
 d    1 1.00
                  1.64                   1

4 0
 s    3 1.00
                 13.01   0.033498726389998
                 1.962    0.23480080117413
                0.4446     0.8136829578829
 s    1 1.00
                 0.122                   1
 p    1 1.00
                 0.727                   1

5 0
 s    3 1.00
                 13.01   0.033498726389998
                 1.962    0.23480080117413
                0.4446     0.8136829578829
 s    1 1.00
                 0.122                   1
 p    1 1.00
                 0.727                   1

6 0
 s    3 1.00
                 13.01   0.033498726389998
                 1.962    0.23480080117413
                0.4446     0.8136829578829
 s    1 1.00
                 0.122                   1
 p    1 1.00
                 0.727                   1

7 0
 s    8 1.00
                 14710  0.00072067370873197
                  2207  0.0055504869689163
                 502.8   0.028254207662589
                 142.6    0.10639582836653
                 46.47    0.28668420124307
                  16.7    0.44843796582416
                 6.356    0.26464118141135
                 1.316   0.015326060993048
 s    8 1.00
                 14710  -0.00032119389049893
                  2207  -0.0025461915683188
                 502.8  -0.012643359507821
                 142.6   -0.05195749170489
                 46.47   -0.14344713812646
                  16.7   -0.33243762329603
                 6.356   -0.21865906750347
                 1.316     1.0955904138622
 s    1 1.00
                0.3897                   1
 p    3 1.00
                 22.67   0.064834021493887
                 4.977    0.34053535983101
                 1.347    0.73464640679382
 p    1 1.00
                0.3471                   1
 d    1 1.00
                  1.64                   1

8 0
 s    3 1.00
                 13.01   0.033498726389998
                 1.962    0.23480080117413
                0.4446     0.8136829578829
 s    1 1.00
                 0.122                   1
 p    1 1.00
                 0.727                   1

[5d]
[7f]
[9g]

[MO]
 Sym= A
 Ene=               0
 Spin= Alpha
 Occup=    1.00000
   1       1.0022337087027
   2    -0.00076852686157889
   3    -0.011496181247805
   4    0.00055714505477812
   5    0.00082579015331171
   6    0.0021095861332085
   7    -0.00082988318438562
   8    0.00043374247093571
   9    0.0012118410410603
  10     8.20309762609e-05
  11    1.2879982112208e-05
  12    -5.8334917250155e-06
  13    -0.0001144330496043
  14    -1.2577834184958e-05
  15    -0.00012250973694956
  16    -0.00064768809731968
  17    0.0024683543906017
  18    0.0011488706957998
  19    -1.1358549615171e-05
  20    -5.8939860962922e-05
  21    -0.00078295096551104
  22    1.0499766297748e-05
  23    -0.00013565021843718
  24    0.00019428846646226
  25    4.4286702330867e-05
  26    2.4009392584109e-05
  27    -0.00031691986395992
  28    8.813555357906e-06
  29    -3.7912304266729e-05
  30    -5.2429371456671e-05
  31    1.5274703705501e-05
  32    -0.00011131290304227
  33    -1.0704021996217e-05
  34    2.2460394139751e-05
  35    -0.00032169274239939
  36    -8.3008612428208e-06
  37    8.3461057080547e-05
  38    -2.0445358111129e-05
  39    -3.9777075610395e-08
  40    3.1948672740806e-06
  41    2.9858551926851e-05
  42    -6.9595208657994e-07
  43    0.00012639668262665
  44    0.00028228249038074
  45    -3.7572658922115e-05
  46    3.9204485576617e-05
  47    9.514069489557e-06
  48    4.5110815025454e-05
  49    0.00015181326866479
  50    -3.3424254737434e-05
  51    -3.2901294137227e-05
  52    7.0880077587437e-06
  53    -0.0030684645731763
  54    0.00080324401072876
  55    -0.00011805916942586
  56    0.0003942187108668
  57    -0.00050539157002087
  58    0.00013841411473896
  59    8.0430338084897e-06
  60    -0.00024486203710139
  61    -0.00037732810668888
  62    0.00032410206447011
  63    0.0008832719005683
  64    -0.00047915220090145
  65    0.00049563996696463
  66    0.0013484109987793
  67    -0.00024599522933951
  68    0.00014795078659134
  69    -0.00017587557996978
  70    7.4326521446641e-06
  71    5.3856564351641e-05
  72    -0.003034611442554
  73    0.00080332998524341
  74    -0.00010357487490465
  75    -0.00059732909285978
  76    -0.00012531443388419
 Sym= A
 Ene=               1
 Spin= Alpha
 Occup=    1.00000
   1    -0.00012159230478867
   2    -0.00065075617030537
   3    0.0024683668753741
   4    -0.0011415013006574
   5    -1.0041160329157e-05
   6    -5.1930107505367e-05
   7    0.00078674840611975
   8    -5.6433689483272e-05
   9    -0.00012316306727238
  10    0.00020644447499097
  11    -4.3576944644991e-05
  12    -1.1911954137023e-05
  13    -0.00031121847310303
  14    -6.8937702148744e-06
  15       1.0022340515048
  16    -0.00081913917148962
  17    -0.011525313950894
  18    -0.00058780812289721
  19    -5.5044150607921e-05
  20    0.0022992269470891
  21    0.0008182537388847
  22    6.3632831842893e-06
  23    0.0013016237886621
  24    7.7247745355815e-05
  25    -6.7246478119737e-06
  26     1.33303717179e-05
  27    -0.00011567611007723
  28    -1.6188886077147e-05
  29    0.00013888369409774
  30    1.0798167971493e-05
  31    -0.0002415524002832
  32    0.0003785438706439
  33    -2.3781632975111e-06
  34    0.00093839893927859
  35    0.00048219094127159
  36    -4.4627129760098e-06
  37    0.0014331913515311
  38    -0.00030226308433114
  39    -0.00015726218593867
  40    1.8514491525826e-07
  41    -2.4433148433755e-05
  42    1.3681739289907e-08
  43    -0.0031161341225919
  44    0.00079187436735227
  45    0.0001192268094151
  46    -0.00054795222881043
  47    -0.00034150603202234
  48    -0.0030827872801928
  49    0.00079216871076829
  50    0.00010472672632089
  51    0.00052314356250166
  52    -0.00032350435514176
  53    0.00011836034970564
  54    0.00027949982995623
  55    3.756684797579e-05
  56    -3.2835454318685e-05
  57    2.1835226646881e-05
  58    -3.7948195087347e-05
  59    -5.2547235576338e-05
  60    1.4920412414563e-05
  61    0.00011065249935203
  62    1.8036662946203e-05
  63    1.7385054219211e-05
  64    0.00032015164888926
  65    3.6640478065137e-05
  66    7.5185764889527e-05
  67    -1.8205049797397e-05
  68    1.3921064483032e-07
  69    -4.2351783405747e-06
  70    3.1276492352519e-05
  71    -7.0134573415389e-07
  72    4.0444015335089e-05
  73    0.00014950727210346
  74    3.3510959081479e-05
  75    3.2721891916764e-05
  76    -4.3626725570825e-06
 Sym= A
 Ene=               2
 Spin= Alpha
 Occup=    1.00000
   1    3.5175907802461e-05
   2    3.4205994527348e-05
   3    -0.0012138345807336
   4    -0.00011195331729252
   5    1.3320545716156e-05
   6    2.2902283555519e-06
   7    -0.00054595055826679
   8    -8.8068725872833e-05
   9    -0.00034332658011804
  10    8.3413272918759e-05
  11    -2.6173035933146e-05
  12    1.0828595740139e-05
  13    3.5661659955188e-06
  14    -1.304078305006e-05
  15    -6.0189206079047e-05
  16     1.73919793437e-05
  17    0.0032701630856634
  18    0.00023049233257646
  19    -2.0450209075154e-07
  20    0.00049697309276891
  21    -0.00011646651026129
  22    3.5220157590849e-05
  23    0.0012956180266905
  24    -1.5047919242689e-05
  25    -1.4951177153439e-05
  26    -1.2370618125271e-07
  27    -6.4049997463217e-06
  28    -9.3226761240735e-06
  29       1.0009660385858
  30    -0.0036632290746745
  31    -0.010279660931886
  32    -0.00098389868758649
  33    5.1270450963018e-05
  34    -0.0025527238158373
  35    -5.6068385772279e-05
  36    5.055426140948e-05
  37    0.00023337330802777
  38    -0.00016146305337259
  39    -9.3452722687822e-05
  40    -1.9039004264461e-06
  41    -6.4793684236734e-06
  42    -2.3412845020516e-06
  43    -0.00026976934612612
  44    -0.00017299528525711
  45    7.7815795555399e-06
  46    -2.4863678348219e-05
  47    -0.00016391472304874
  48    -0.00028106331542987
  49    -0.00022383118561735
  50    1.0681932977241e-05
  51    2.3709273552362e-05
  52    -0.00016467169117857
  53    5.9609285153998e-05
  54    8.8677312315879e-05
  55    4.2302444722621e-05
  56    2.3867969519514e-05
  57    4.9971615948524e-05
  58    -3.4816685576062e-05
  59    -6.8019218171101e-05
  60    0.00021356902784887
  61    -6.1685775077978e-06
  62    2.1671178791872e-05
  63    3.3366650889492e-05
  64    2.2140827432799e-05
  65    -4.7546139842166e-05
  66    -4.3503952564097e-05
  67    4.6265733819904e-06
  68    1.7674468655347e-06
  69    -6.6855190136858e-06
  70    -1.3905640042792e-05
  71    2.9897820398731e-06
  72    0.00010984947388554
  73    -9.5874242449521e-05
  74    1.8492194541941e-06
  75    1.821462201181e-05
  76    3.4640278545835e-05
 Sym= A
 Ene=               3
 Spin= Alpha
 Occup=    1.00000
   1    -6.0151048050596e-05
   2    1.5674208443735e-05
   3    0.0032691688508808
   4    -0.00022923036332789
   5    0.00017056748598152
   6    0.00046889308574222
   7    0.00011711318289519
   8    0.00041015726154017
   9    0.0012301447784633
  10    -1.1717623865742e-05
  11    1.7263675388542e-05
  12    -1.0212730410291e-05
  13    -4.501079513363e-06
  14    -3.6681269192842e-06
  15    3.5212908784507e-05
  16    3.4559810266512e-05
  17    -0.0012138112422553
  18    0.00011199264902722
  19    -1.255831075861e-05
  20    6.6389435178865e-06
  21    0.00054607372657137
  22    -3.4945365009977e-05
  23    -0.00035277496204188
  24    7.4446599113811e-05
  25    2.8971268650715e-05
  26    3.9338703640435e-05
  27    -1.6611855835347e-06
  28    -3.3466854776601e-06
  29    -3.4823116553559e-05
  30    -6.8105170406944e-05
  31    0.00021342884139969
  32    6.2692228129357e-06
  33    -8.9052500805704e-06
  34    3.887918783073e-05
  35    -2.205270735876e-05
  36    2.9879943745529e-05
  37    -5.7053247390635e-05
  38    1.4999388687143e-06
  39    -2.6824937760252e-06
  40    3.2399712136134e-06
  41    -1.5703696822677e-05
  42    2.2052452631485e-06
  43    6.0492970641224e-05
  44    8.9031386228704e-05
  45    -4.2335392201088e-05
  46    -5.298587754708e-06
  47    5.5145798747248e-05
  48    0.00010945444545026
  49    -9.6090010228316e-05
  50    -1.8305584825045e-06
  51    -5.2636435455656e-06
  52    3.8764051099751e-05
  53    -0.00027189078588627
  54    -0.00017352743367811
  55    -7.8536408970039e-06
  56    -3.2517902463751e-05
  57    -0.00016264193180045
  58       1.0009660207834
  59    -0.0036652135115267
  60    -0.010281988928331
  61    0.0009868732597594
  62    -0.00092153450536458
  63    -0.0023821319428218
  64    5.8073622835617e-05
  65    3.2124301136989e-05
  66    0.00023590003928499
  67    -0.00013355380670552
  68    8.8547416785151e-05
  69    -9.0505160196476e-05
  70    9.6692032265107e-06
  71    2.9737074199656e-05
  72    -0.00028282492204963
  73    -0.00022428573478227
  74    -1.0731673796539e-05
  75    -7.8783859896874e-05
  76    -0.00014659060739258
 Sym= A
 Ene=               4
 Spin= Alpha
 Occup=    1.00000
   1    0.0007711202759951
   2     0.012839832856203
   3     0.038554379423436
   4     0.021559395416557
   5    -0.0021953451111737
   6    -0.00026386768390898
   7     0.018287576590751
   8    -0.0054663864489667
   9    -0.019836794602974
  10    -0.00097893220330984
  11    0.00060869381719962
  12    0.0011146855211226
  13    0.00043123673056644
  14    -0.0006520579947163
  15    0.0009245162279153
  16     0.001747081923084
  17    -0.0064356689442924
  18    0.0058919117891607
  19    0.0083617849876349
  20    -0.00096701326318615
  21     0.019478932195801
  22     0.031342041324059
  23    0.0071771705296342
  24    -0.0088589138601505
  25     0.014970846742934
  26     0.030663078633992
  27     0.007186403646294
  28    0.0074695390262462
  29    0.00070518360530392
  30    0.00045029143602301
  31    -0.0063418363347434
  32      0.32695429116996
  33      0.57042449551363
  34        -0.10867058417
  35      0.23050991991595
  36      0.40250394634145
  37    -0.074451284473838
  38    0.0035973661762173
  39    -0.0056192924438374
  40    -0.010566292132106
  41    -0.0016592236644899
  42    -0.0037633885231137
  43     0.025368003882075
  44     0.032120227264576
  45    -0.0010341500428245
  46    -0.00082306452930025
  47    0.00050527795312358
  48    -0.048349007465012
  49    -0.055530730167383
  50    -0.00083089612153666
  51    -0.0012263885527332
  52    -0.0016704870253991
  53    -0.0055975008168521
  54      -0.0147929671309
  55    7.2005314108788e-05
  56    0.0011624077681399
  57    -8.5957659623633e-05
  58    -0.00050659650490676
  59    0.0020168834373104
  60      0.01133104083575
  61    0.0028927469301539
  62    -0.0054411984237819
  63    0.00065167115534837
  64    0.00045183886841113
  65    -0.0023416641513156
  66    -0.0027849358753074
  67    0.00033428819805782
  68    -0.00063454152692013
  69    0.00029018830302413
  70    -0.00025537173523664
  71    0.00046144583448478
  72    -0.00080848765364296
  73    -0.010237212590601
  74    0.0019962504566989
  75    -0.00034056331343063
  76    0.00092857679742092
 Sym= A
 Ene=               5
 Spin= Alpha
 Occup=    1.00000
   1    0.00039044683479211
   2     0.019790090066335
   3     0.068991380865952
   4     0.035128474865864
   5    0.0004525768606302
   6    0.0038737050513857
   7     0.050280185782093
   8    0.0094965809479808
   9    -0.012539235299573
  10    -0.0010202760606098
  11    0.0016064703184305
  12    7.289557048451e-05
  13    0.00024572469675521
  14    0.0011874471020991
  15    0.0019624102522417
  16    0.0026989804555827
  17    -0.026728323040074
  18     0.012382440022359
  19    -0.0051369157886997
  20    -0.0021644005585036
  21     0.046102735506173
  22     -0.01933424632506
  23     0.011943393306607
  24    -0.014868052582823
  25     0.025274512685549
  26    -0.018568859538563
  27     0.011221444039087
  28    -0.0041414282338462
  29    0.00082623507604805
  30    -0.014106426623633
  31    -0.027048654983143
  32      0.54127226722351
  33     -0.34540169767698
  34     -0.18100834807711
  35      0.38073574075941
  36     -0.24294276432311
  37     -0.12344527302473
  38    0.0055843295325166
  39    -0.0094070780559829
  40    0.0064881007249148
  41    -0.003111790046213
  42    0.0019598604992489
  43    -0.040078738938884
  44    -0.047776276739301
  45    -0.0014856949486512
  46    0.0011341179425787
  47    -0.0015431862482423
  48    0.0042373909998393
  49    0.0056057139548281
  50    -0.0015609746463674
  51    0.00028073108009134
  52    -0.00043697175532886
  53    -0.0083239832074535
  54    -0.013137877037762
  55    0.0023115473727554
  56    0.00081703785170259
  57    0.00014608112661735
  58    0.0013106732242515
  59    0.0089994155474518
  60    0.0068761651086044
  61     0.012990213060838
  62    -0.00093919094840488
  63    0.0027116044469687
  64    0.0005621136584706
  65    -0.0038668977113456
  66    -0.0012885891423604
  67    0.0010050185347456
  68    -0.0012378601483752
  69    0.00035432471743296
  70    -0.0014015067302591
  71    4.0217868718435e-05
  72    -0.00051797483259588
  73    0.00092124715566548
  74    0.00070190291783161
  75    -0.0004532668143096
  76    0.0016026647773533
 Sym= A
 Ene=               6
 Spin= Alpha
 Occup=    1.00000
   1    -0.001980755956223
   2    -0.003901149002712
   3     0.026076107609005
   4     0.013297580450223
   5    -0.0050194143415898
   6    0.0053802314732746
   7     0.046838113794351
   8    -0.021954787691447
   9    -0.004446519896831
  10     0.023499369384955
  11     0.022662218028763
  12    -0.0087543206913315
  13    -0.0065036622477481
  14     0.012507454909081
  15    -0.00038841585523344
  16    -0.019657436828214
  17    -0.069590838316271
  18     0.035698411140866
  19    -0.0011500083067341
  20    -0.003916007979904
  21     0.050681588254311
  22     0.013162628028401
  23    0.0089641860376925
  24    0.00081630819674177
  25    0.0018441786228774
  26    0.00059145202187431
  27    -0.0004205681935281
  28    -0.000489466247384
  29    -0.0012995118579179
  30    -0.0091071399957426
  31    -0.0072807369109729
  32     0.013109232831758
  33    -0.0019262050031881
  34    -0.0020820692484968
  35    0.00064256427022279
  36    -0.0031880421312562
  37    0.0027049348738934
  38    -0.0011755379732284
  39    -0.0011581148522917
  40    0.00016747776747369
  41    0.0013124896097795
  42    -0.00047614408347822
  43    0.0088558368704307
  44     0.013544872501025
  45    0.0022899125852273
  46    0.00077977471384698
  47    -0.00041151135091712
  48    0.00077797775342952
  49    -0.00054098485625966
  50    0.00074696933334409
  51    -0.0010047795406685
  52    -0.0013668458845225
  53     0.036951344704994
  54     0.046136115530145
  55    -0.0015936495500632
  56    0.0016981825006765
  57    0.00093544528983867
  58    -0.00083581319233395
  59     0.014505582759604
  60     0.027630487605899
  61      0.54947269626608
  62     -0.24805669561652
  63      0.28529452321383
  64      0.38645618894741
  65     -0.17569097082699
  66      0.19691758293531
  67    -0.0084751150117995
  68    -0.0083454442669912
  69    0.0026349118828996
  70    0.0015435446787318
  71    -0.0050259006077955
  72    -0.0030784000114469
  73    -0.0040342808889424
  74    -0.0015611370843229
  75    0.00033413161056447
  76    0.00040331144006921
 Sym= A
 Ene=               7
 Spin= Alpha
 Occup=    1.00000
   1    -0.00088085802143367
   2    -0.0023995620723462
   3    0.0052896987744328
   4    0.0060191640023656
   5     0.011214306944446
   6    -0.0023848691785463
   7     0.018492785395972
   8     0.028605149807347
   9    -0.017440441575383
  10    -0.0095208032063752
  11     0.016034270079829
  12     0.026284153329536
  13    -0.017265696493781
  14    -0.0023518560699849
  15    -0.00075122215848317
  16    -0.011959998908823
  17    -0.036521652106994
  18      0.02075288260646
  19    -0.0023867980135987
  20    0.00083141622946165
  21     0.017042976821564
  22    0.0011444338589801
  23     0.020098573031652
  24    0.00022093616535328
  25    0.00031652941470654
  26    0.0012698210979801
  27    -0.00087601395965254
  28    0.00067343138791604
  29    0.00053051867454887
  30    -0.0018106827258843
  31     -0.01110907090496
  32    0.0025515774258649
  33    -0.0052573242080356
  34    0.0013305732175039
  35    0.00040225878681461
  36    -0.0011349897070811
  37    0.0033741350081613
  38    -0.00043059170168744
  39    -0.0004090181553667
  40    0.00012165334180117
  41    0.00014766097800318
  42    -0.00063931490834868
  43    0.0061648450489495
  44     0.014817231274999
  45    -1.1135832669706e-05
  46    0.0011354254251229
  47    -0.00028564655335817
  48    0.00058561401286494
  49    0.0098990553444292
  50    0.0019810260236751
  51    -0.00063688496156802
  52    -0.0007182646168279
  53    -0.025016217009789
  54    -0.032623982418266
  55    -0.00092848789809539
  56    -0.00097385062731455
  57    -0.00016355704434543
  58    -0.0006798761759801
  59    -0.00048838280770132
  60      0.00600793896215
  61      0.31314562541189
  62      0.57938680866722
  63     -0.10049178298689
  64      0.22076966301606
  65      0.40791264324126
  66    -0.072843931773146
  67    0.0029845665960228
  68    -0.0063688693815749
  69    -0.009663862308156
  70    0.0053015349045721
  71    0.0017478448444843
  72     0.045544007435621
  73     0.054587416141294
  74    -0.00089621827561224
  75    -0.00076003328791923
  76    0.0019461297180176
 Sym= A
 Ene=               8
 Spin= Alpha
 Occup=    1.00000
   1    -0.0030131128461008
   2     -0.15719834273192
   3     0.010252321380389
   4     0.097154400079411
   5    -0.099954678011824
   6     -0.27119069449547
   7     0.032952718126896
   8    -0.018099730895466
   9      -0.0490140632469
  10     -0.04015811657684
  11     0.026456911387974
  12    -0.029938504203703
  13    0.00014217722600653
  14     0.010101865099331
  15    -0.00095982398602275
  16    0.0092272698636868
  17    -0.0098475840072485
  18    -0.027370444280429
  19    0.0008687428313568
  20    -0.0045975341246726
  21    -0.0053660287614619
  22    0.00021482507744278
  23    -0.0017018002118901
  24    0.0054473799820881
  25     0.011118236607368
  26    0.00095228248942751
  27    -0.0020610347245275
  28    0.0037628730641601
  29    -0.00025454794355238
  30    0.0037168280555829
  31     0.008054506727366
  32    -0.0052522267895199
  33    -0.00033061029272905
  34    -0.0086673474494676
  35    -0.0055417868580763
  36    0.00063906180865694
  37    -0.0044250735325732
  38    -0.00017382275540857
  39    0.0002751613291922
  40    5.0758568757695e-05
  41    -0.00028694700086852
  42    0.00012051660610738
  43    -0.013544465600839
  44     -0.01493802133844
  45    -0.0011287975309169
  46    0.00016102980914005
  47    0.0014528204640443
  48    -0.00014773342993611
  49    -0.0056349450574248
  50    -0.0018986272957245
  51    -0.00059383267293541
  52    0.00098185534621352
  53    0.0080105626401365
  54     0.021282177666655
  55    0.0013473018944877
  56    -0.0014092875465316
  57     -0.01041779646907
  58    0.0040496752616173
  59     -0.14922904596977
  60     -0.11390769516163
  61     -0.15474384948627
  62      0.16208559561408
  63      0.45057747865713
  64     -0.10291563721621
  65      0.10601300033079
  66      0.29538665718605
  67    -0.015077491271624
  68     0.010220178846712
  69    -0.010605322820518
  70    0.00014087317101405
  71    0.0036187139215475
  72     0.009380234177313
  73     0.022224333018985
  74    0.0012921613939954
  75    -0.0054306613942998
  76    -0.0087997396698718
 Sym= A
 Ene=               9
 Spin= Alpha
 Occup=    1.00000
   1    -0.0010045760431099
   2    0.0096083162410844
   3    -0.0096453584979594
   4     0.026710254653412
   5    -0.0016584249020675
   6    -0.0048707745704287
   7    0.0051171964685354
   8    -0.00052883307699365
   9    -0.0017696339582696
  10    0.0052214725799708
  11    -0.011765051962145
  12    0.0015898849496244
  13    -0.0021615859613266
  14    -0.0002853030340468
  15    -0.0030397483635553
  16        -0.15507114162
  17     0.011448061236546
  18     -0.09557711271437
  19     0.001306650232044
  20     -0.29070227000634
  21      -0.0322942285196
  22    0.0003167258042894
  23    -0.052923033997726
  24    -0.049868736390392
  25    -0.028322629436659
  26    0.00062304989537207
  27    -0.0055160567280482
  28    0.00040978403771327
  29    0.0040287274173952
  30     -0.14938938581697
  31     -0.11406395664259
  32      0.15529263060215
  33    0.0018429930321863
  34      0.47885940278062
  35      0.10317188447734
  36     0.001428247484516
  37      0.31391890031741
  38    -0.018313333942379
  39    -0.010866157444289
  40    -0.00022623909575073
  41    -0.001761134450768
  42    -9.6900660455139e-05
  43     0.010130977334713
  44     0.021825535809844
  45    -0.0013925976926127
  46    -0.0020317435278945
  47    -0.010214385480895
  48      0.01158446788074
  49     0.022691020167641
  50    -0.0013442428817703
  51     0.001874093296719
  52    -0.010062545111366
  53    -0.012254379442833
  54    -0.014486754496998
  55    0.0011604202505314
  56    0.00027309602413126
  57    0.0014897275463771
  58    -0.00025529641831352
  59    0.0037108154432696
  60    0.0080698500910908
  61    0.0053175650335581
  62    -0.0027176155177615
  63    -0.0082006371559785
  64    0.0056579034446666
  65    -0.0022119426464112
  66    -0.003859571250477
  67    -7.0129118301256e-05
  68    -0.00029233753959074
  69    -0.00023448381244133
  70    -0.00023889881481811
  71    2.588515609443e-05
  72    -0.00022724607145033
  73    -0.0056831171732068
  74     0.001874150870156
  75    0.00092327938505045
  76    0.00069527960808904
 Sym= A
 Ene=              10
 Spin= Alpha
 Occup=    1.00000
   1    -0.0011135354259584
   2    -0.0013924271246742
   3     0.011224172829712
   4    0.0042255970210736
   5    -0.00066823101976717
   6    -0.0036514234643959
   7    0.0083598260440468
   8    -0.0012350795277152
   9    -0.0017703550234144
  10    0.00023381778555491
  11    -0.0037371414302401
  12    0.00059227793337738
  13    -4.3932167979607e-05
  14    -0.00015876755137768
  15    -0.0072499690378315
  16    -0.037119396320567
  17     -0.02481266425956
  18    -0.017369968576784
  19    0.00017742918980702
  20    -0.051243264272606
  21    -0.0020300208156126
  22    -9.597612022141e-05
  23    -0.0045169692129748
  24    0.0017374604252537
  25    0.0020757105821611
  26    -0.00027416266873591
  27    0.00051178209699425
  28    -9.5023359970325e-05
  29    0.0057369155910485
  30      0.47035580398993
  31       0.5524484219109
  32     0.090283095575537
  33    -0.0085514398262119
  34      0.22218346977276
  35     0.064248045535484
  36    -0.0064690919935543
  37      0.15546850619401
  38    -0.0041612128664659
  39    -0.0025792921505293
  40    5.5068861108722e-05
  41    -0.00049108871842659
  42     8.07808944768e-05
  43    -0.0011392867150894
  44     0.012116526626568
  45    -0.0012523325508999
  46    0.00082822717798125
  47    -0.0022230426924103
  48    0.00041035017759609
  49     0.013415771694263
  50    -0.0012483927082612
  51    -0.00088225026376107
  52    -0.0021140376280207
  53    -0.0032371983801366
  54    -0.0033010560772751
  55    0.0006657884076727
  56    -0.0003240345822761
  57    0.0003262078771303
  58    -0.00035618863587922
  59    -0.00065933741136941
  60    0.0016510310053026
  61    -0.0020330192382166
  62    -0.00031068596975113
  63     -0.00414523100613
  64    1.8183794996992e-05
  65    -0.00051210382752779
  66    -0.0010157979341281
  67    -0.00014832026384214
  68    0.0001893124322921
  69    -7.9158062331708e-05
  70    0.00015578048955597
  71    -5.4411770847594e-05
  72    -0.0012399498129269
  73    -0.001927219635033
  74    0.00010116651454363
  75    8.2528148265639e-05
  76    -0.00014110850935927
 Sym= A
 Ene=              11
 Spin= Alpha
 Occup=    1.00000
   1    -0.007246552116723
   2    -0.037150921263065
   3    -0.024839617470253
   4     0.017409374840234
   5    -0.017627853241509