[Molden Format]
made by pyscf v[2.0.1]
[Atoms] (AU)
C   1   6     0.00000000000000     0.00000000000000     0.00000000000000
C   2   6     2.85207482267819     0.00000000000000     0.00000000000000
F   3   9     3.65415199667903     0.00000000000000     2.45977207315200
H   4   1     3.58561868306314    -1.67891019462705    -0.93677358840720
H   5   1     3.58561868306314     1.67891019462705    -0.93677358840720
H   6   1    -0.73354386038494    -0.63100219691706    -1.81607280279338
F   7   9    -0.80207717400084     2.42240260828301     0.42713493797885
H   8   1    -0.73354386038494    -1.21408158844390     1.49073474976653
[GTO]
1 0
 s    8 1.00
                  6665  0.00069158396281299
                  1000  0.0053257961529341
                   228   0.027060721042034
                 64.71    0.10165684614077
                 21.06     0.2745748236174
                 7.495    0.44829431892377
                 2.797    0.28490261071525
                0.5215   0.015194859206082
 s    8 1.00
                  6665  -0.00029326965268655
                  1000  -0.0023180354739745
                   228  -0.011499786038565
                 64.71  -0.046826727009787
                 21.06   -0.12846616875047
                 7.495   -0.30126627246289
                 2.797   -0.25563070233011
                0.5215      1.093793361012
 s    1 1.00
                0.1596                   1
 p    3 1.00
                 9.439   0.056979251590039
                 2.002    0.31320721150073
                0.5456    0.76037674173753
 p    1 1.00
                0.1517                   1
 d    1 1.00
                  0.55                   1

2 0
 s    8 1.00
                  6665  0.00069158396281299
                  1000  0.0053257961529341
                   228   0.027060721042034
                 64.71    0.10165684614077
                 21.06     0.2745748236174
                 7.495    0.44829431892377
                 2.797    0.28490261071525
                0.5215   0.015194859206082
 s    8 1.00
                  6665  -0.00029326965268655
                  1000  -0.0023180354739745
                   228  -0.011499786038565
                 64.71  -0.046826727009787
                 21.06   -0.12846616875047
                 7.495   -0.30126627246289
                 2.797   -0.25563070233011
                0.5215      1.093793361012
 s    1 1.00
                0.1596                   1
 p    3 1.00
                 9.439   0.056979251590039
                 2.002    0.31320721150073
                0.5456    0.76037674173753
 p    1 1.00
                0.1517                   1
 d    1 1.00
                  0.55                   1

3 0
 s    8 1.00
                 14710  0.00072067370873197
                  2207  0.0055504869689163
                 502.8   0.028254207662589
                 142.6    0.10639582836653
                 46.47    0.28668420124307
                  16.7    0.44843796582416
                 6.356    0.26464118141135
                 1.316   0.015326060993048
 s    8 1.00
                 14710  -0.00032119389049893
                  2207  -0.0025461915683188
                 502.8  -0.012643359507821
                 142.6   -0.05195749170489
                 46.47   -0.14344713812646
                  16.7   -0.33243762329603
                 6.356   -0.21865906750347
                 1.316     1.0955904138622
 s    1 1.00
                0.3897                   1
 p    3 1.00
                 22.67   0.064834021493887
                 4.977    0.34053535983101
                 1.347    0.73464640679382
 p    1 1.00
                0.3471                   1
 d    1 1.00
                  1.64                   1

4 0
 s    3 1.00
                 13.01   0.033498726389998
                 1.962    0.23480080117413
                0.4446     0.8136829578829
 s    1 1.00
                 0.122                   1
 p    1 1.00
                 0.727                   1

5 0
 s    3 1.00
                 13.01   0.033498726389998
                 1.962    0.23480080117413
                0.4446     0.8136829578829
 s    1 1.00
                 0.122                   1
 p    1 1.00
                 0.727                   1

6 0
 s    3 1.00
                 13.01   0.033498726389998
                 1.962    0.23480080117413
                0.4446     0.8136829578829
 s    1 1.00
                 0.122                   1
 p    1 1.00
                 0.727                   1

7 0
 s    8 1.00
                 14710  0.00072067370873197
                  2207  0.0055504869689163
                 502.8   0.028254207662589
                 142.6    0.10639582836653
                 46.47    0.28668420124307
                  16.7    0.44843796582416
                 6.356    0.26464118141135
                 1.316   0.015326060993048
 s    8 1.00
                 14710  -0.00032119389049893
                  2207  -0.0025461915683188
                 502.8  -0.012643359507821
                 142.6   -0.05195749170489
                 46.47   -0.14344713812646
                  16.7   -0.33243762329603
                 6.356   -0.21865906750347
                 1.316     1.0955904138622
 s    1 1.00
                0.3897                   1
 p    3 1.00
                 22.67   0.064834021493887
                 4.977    0.34053535983101
                 1.347    0.73464640679382
 p    1 1.00
                0.3471                   1
 d    1 1.00
                  1.64                   1

8 0
 s    3 1.00
                 13.01   0.033498726389998
                 1.962    0.23480080117413
                0.4446     0.8136829578829
 s    1 1.00
                 0.122                   1
 p    1 1.00
                 0.727                   1

[5d]
[7f]
[9g]

[MO]
 Sym= A
 Ene=               0
 Spin= Alpha
 Occup=    1.00000
   1       1.0022337999168
   2    -0.00079074454689525
   3    -0.011673296440319
   4    0.00050760494247171
   5    0.0023010224248605
   6    0.00028049220896666
   7    -0.00089526939055636
   8    0.0012923971371769
   9    0.00018370220403437
  10    6.9996620069543e-05
  11    1.1451744357154e-05
  12    2.9955023413593e-05
  13    -0.00014520917672559
  14    -8.8767453627682e-06
  15    -0.0001108593913478
  16    -0.00064432920859122
  17    0.0023853895478849
  18    0.0011487955000295
  19    -2.0514873607216e-05
  20    -8.1410875582303e-05
  21    -0.001000465707439
  22    -0.00021103615540121
  23    0.0001092836224258
  24    0.00015277956130356
  25    1.261525216964e-05
  26    1.4804437871128e-05
  27    -0.00031408878720322
  28    3.2038871576347e-05
  29    -3.545236309024e-06
  30    5.2478692040124e-05
  31    -4.894976975022e-05
  32    -0.00021811612156591
  33    -3.6859536600589e-05
  34    -1.3809012075839e-05
  35    -0.00028580277956374
  36    2.5643286596808e-05
  37    3.718452365088e-05
  38    -6.2749583263187e-06
  39    -1.9166112610627e-06
  40    4.115786383342e-06
  41    2.3231776933997e-05
  42    -5.5647365560623e-06
  43    0.00017446279635326
  44    0.00034889117228791
  45    -3.5280827476477e-05
  46    4.9422100770789e-05
  47    3.932552057003e-06
  48    -2.7882372231604e-05
  49    0.00033539019464068
  50    -6.6861119049043e-05
  51    -2.8652572600121e-05
  52    -1.2525267517335e-05
  53    -0.0030594410375782
  54    0.0007835164868492
  55    -0.00011527636631958
  56    -0.00025113718399138
  57    -0.00059794298950833
  58    0.00014806155474991
  59    3.2847053225594e-05
  60    -0.0002816558475128
  61    -0.00036380079967719
  62    0.00091839570257676
  63    0.00015838319230837
  64    -0.00046526460517149
  65    0.0014248317555906
  66    0.0002669324589681
  67    0.00016088592570789
  68    2.7781868397342e-05
  69    -9.6410383625263e-05
  70    0.00024429789334022
  71    0.00015705922713913
  72    -0.0030252736177272
  73    0.00082743119121606
  74    -9.3077204785912e-05
  75    -0.00040676253861076
  76    0.00044909315366037
 Sym= A
 Ene=               1
 Spin= Alpha
 Occup=    1.00000
   1    -0.00011001088619615
   2    -0.00064666642008639
   3      0.00238635016074
   4    -0.0011422825800167
   5    -7.3989553725452e-05
   6    -2.4801523260071e-05
   7    0.0010037556069692
   8    0.00014499760665262
   9    -0.0001871966889106
  10    0.00019911811950407
  11    -3.2730238743551e-05
  12    5.3526463085522e-06
  13    -0.00028881250090031
  14    -7.2023694582929e-06
  15       1.0022340379282
  16    -0.00084121250247668
  17    -0.011702246193434
  18    -0.00053753100405677
  19    -0.0001284720886278
  20    0.0023487058890365
  21    0.00088367515625205
  22    -4.5840220444193e-05
  23    0.0013191074202803
  24    0.00010037433491987
  25    7.7470979410664e-06
  26    2.4253390793024e-05
  27    -0.00012623328364051
  28    -1.3029323135293e-05
  29    0.0001485022077453
  30    3.551519406656e-05
  31    -0.00027843427953422
  32    0.00036520704105625
  33    -3.2505374100725e-06
  34    0.00092946232866504
  35    0.00046830863493775
  36    1.5927604742528e-05
  37    0.0014461783389337
  38    -0.00030768603281079
  39    -0.00015932927222404
  40    -1.0874661279495e-06
  41    -2.5606854363836e-05
  42    -7.244444022378e-08
  43    -0.003103016438073
  44     0.000773786915304
  45    0.00011630631226038
  46    -0.00054971295526837
  47    -0.00035250155181761
  48    -0.003076088039238
  49    0.00081563812525331
  50    9.4273831302826e-05
  51    0.00051772992357032
  52    -0.00032417815065624
  53    0.00016395654375168
  54    0.00034524109996043
  55    3.5221632754688e-05
  56    -4.9638020627962e-06
  57    4.8375907177487e-05
  58    -3.4916703207452e-06
  59    5.3213961491459e-05
  60    -4.8117398406001e-05
  61    0.00021868387025597
  62    -7.6567378771119e-06
  63    -3.9777070138407e-05
  64    0.00028561950031843
  65    3.194442901931e-05
  66    3.0497439878521e-05
  67    -1.5457911655124e-05
  68    5.8538801767601e-06
  69    5.870687438267e-06
  70    1.7985567305432e-05
  71    7.8119505344758e-07
  72    -2.8354200702468e-05
  73    0.00033255739422231
  74    6.7135490321744e-05
  75    -7.316532894819e-06
  76    -3.0119192768156e-05
 Sym= A
 Ene=               2
 Spin= Alpha
 Occup=    1.00000
   1    3.0556588047483e-05
   2    4.4322344725068e-05
   3    -0.00093014782128342
   4    -0.00013750882165896
   5    -1.023984455283e-06
   6    1.4063510650528e-05
   7    -0.00035879141566137
   8    2.8456806335973e-05
   9    -0.0001549982161334
  10    8.3935529458714e-05
  11    -2.4116074444706e-05
  12    -1.7835584583276e-05
  13    -2.8136166052582e-05
  14    5.1299922526788e-06
  15    -4.1808885810294e-05
  16    6.1071508062625e-05
  17    0.0030223087279278
  18    0.00024558980927133
  19    -5.3042666229673e-06
  20    0.00052001669550579
  21    -1.236290694073e-05
  22    2.5973899676475e-05
  23    0.0012456088909263
  24    -1.0307778034245e-05
  25    4.3239581313615e-06
  26    -7.8881171377129e-06
  27    -7.5851466177446e-06
  28    4.3360556382096e-06
  29       1.0009672636396
  30    -0.0039024853180757
  31    -0.010563441857462
  32    -0.00092933542524347
  33    -7.6307722460805e-05
  34    -0.002694337626277
  35    1.5237379196681e-05
  36    -5.4632716265848e-05
  37    9.0827567703428e-05
  38    -0.00015671679398367
  39    -8.7901483999245e-05
  40    4.2276924877627e-06
  41    -1.0043855398762e-05
  42    1.5212326591049e-06
  43    -0.00025597078830857
  44    -0.00021988532045898
  45    7.9565352896066e-06
  46    -2.2685502548304e-05
  47    -0.00015640143239814
  48    -0.00027192607054057
  49    -0.00021791864916292
  50    1.2048906536165e-05
  51    2.348416862479e-05
  52    -0.00016175331311194
  53    2.7495811058188e-05
  54    0.00016920110079806
  55    2.7206313716653e-05
  56    -2.1367939360371e-05
  57    2.4656151811714e-05
  58    2.5875782273665e-05
  59    5.3881828510522e-05
  60    -3.208863474732e-05
  61    4.3176306948433e-05
  62    -7.6974765955533e-07
  63    4.4231822253837e-06
  64    -9.7760784624775e-05
  65    -9.2568591778034e-06
  66    -1.6229243532466e-05
  67    4.4561624047158e-06
  68    -7.4309009141248e-06
  69    1.6701687996911e-06
  70    -1.4797814959659e-05
  71    6.3119050395097e-06
  72    3.1646900036709e-05
  73    -8.2112958727754e-05
  74    -7.5726227473171e-05
  75    -1.7719849764239e-05
  76    -1.324949969634e-05
 Sym= A
 Ene=               3
 Spin= Alpha
 Occup=    1.00000
   1    -4.2146541588303e-05
   2    5.7441250041656e-05
   3    0.0030200415056389
   4    -0.00024322578177282
   5    0.00051101115058207
   6    8.4356116244496e-05
   7    1.2960229948271e-05
   8    0.0012222730097294
   9    0.00024161161576942
  10    8.6644105485504e-06
  11    -4.9756895661647e-06
  12    -1.1758656043237e-05
  13    3.2856928255344e-06
  14    -3.4554092365051e-06
  15    3.0531272721058e-05
  16    4.3727529956746e-05
  17    -0.00093046369550383
  18    0.00013682046794719
  19    1.2544805936862e-05
  20    1.9149400419467e-06
  21    0.00035777166826279
  22    -0.00015826368229783
  23    1.7425022239326e-06
  24    -1.977550441174e-05
  25    -7.9144402779572e-07
  26    3.3589265958844e-06
  27    -8.8040121268607e-05
  28    2.4731390710397e-05
  29    2.5908609506262e-05
  30    5.3972150683533e-05
  31    -3.2242320137879e-05
  32    -4.3163479401215e-05
  33    4.5818331975589e-06
  34    -1.0084107113597e-07
  35    9.7950135332378e-05
  36    -1.4211005015877e-05
  37    -1.2014761107514e-05
  38    1.0886147616084e-05
  39    -4.9186352562213e-06
  40    3.7903511693175e-07
  41    -1.1077541195745e-05
  42    8.4206233888282e-06
  43    2.7782830791239e-05
  44    0.00016943114042232
  45    -2.7247542853387e-05
  46    2.8011156156202e-05
  47    -1.6738177722062e-05
  48    3.0025797918626e-05
  49    -8.1831600865048e-05
  50    7.573607437093e-05
  51    -9.8885991954377e-06
  52    -1.9789929169248e-05
  53    -0.00025715910192629
  54    -0.00021950792695071
  55    -7.9137434366465e-06
  56    -0.00015022873226304
  57    -4.9628061947393e-05
  58       1.0009675655336
  59    -0.0038804863486866
  60    -0.010537288990117
  61    0.00092888985163298
  62    -0.0026270263516937
  63    -0.00054200421219611
  64    -1.5562188004422e-05
  65    0.00010805849466405
  66    -3.7335712420093e-05
  67    8.1102760754243e-05
  68    1.3769030683311e-05
  69    -4.4231496758704e-05
  70    0.00012744662124648
  71    8.6908305994945e-05
  72    -0.00027351284701249
  73    -0.00021768521293997
  74    -1.2042811829336e-05
  75    -0.00016356949214366
  76    -4.8640368554147e-06
 Sym= A
 Ene=               4
 Spin= Alpha
 Occup=    1.00000
   1    -0.0018985074733554
   2    -0.018301846481129
   3    -0.039071936757322
   4    -0.024757718720329
   5    -0.0018239020452446
   6    -0.0030086881012884
   7    -0.019691491068308
   8    -0.0047101562336304
   9     0.029429898272413
  10    0.0015833872085514
  11    -0.00043186768662811
  12    0.00079812765940229
  13    -0.00054009244638299
  14    -0.0012252233260842
  15    -0.0007744054742572
  16    -0.0016478059544104
  17    0.0010950777207392
  18    -0.0062872159471018
  19    0.0072566415421932
  20    0.0021756234202923
  21    -0.023563218586796
  22     0.027270400135323
  23    -0.010529314724818
  24     0.010890758432692
  25    -0.017280419115152
  26     0.027632616848613
  27    -0.0083189079768472
  28    0.0064283567197013
  29    -0.00071600935260153
  30    -0.0010795799088276
  31    0.0078281072917153
  32     -0.39934377482706
  33      0.51722695853165
  34       0.1285701678193
  35     -0.28237628109288
  36      0.36549305481204
  37     0.088669948218452
  38    -0.0041209781906993
  39    0.0066472549898595
  40    -0.0094519472891984
  41    0.0025703676492122
  42    -0.0033644060828263
  43     0.047647493346917
  44     0.054337793775837
  45    0.00086019646097505
  46    -0.0011378675606037
  47    0.0018381470446411
  48    -0.019162563636535
  49    -0.022937767016508
  50     0.001023475361828
  51    -0.00075639799440192
  52    -3.5904379509406e-05
  53    0.0098107439556135
  54     0.026997330931023
  55    -0.00075204311275068
  56    0.00061865141626358
  57    0.00088812256276965
  58    -0.00013644869498933
  59    -0.00055127318102851
  60    0.0010153534108279
  61    -0.00071862349385689
  62    -0.00022950569038904
  63    -0.0044897148809346
  64    0.0022958774495156
  65    -1.3370658413628e-06
  66    -0.0043094403484062
  67    0.00021237281396296
  68    0.00041431143777042
  69    7.1897963367386e-05
  70    9.0372703707478e-05
  71    0.00039623084092216
  72    -0.008626289697973
  73    -0.011482333536887
  74    -0.00034483527518308
  75    -0.00084272891448655
  76    0.00066775136707939
 Sym= A
 Ene=               5
 Spin= Alpha
 Occup=    1.00000
   1    -0.00076121727536531
   2    -0.0024759624374599
   3    0.00049567803164716
   4    0.0067917131376654
   5    0.0012469048667374
   6     0.010273986836483
   7     0.023536867962712
   8    -0.014983937683556
   9     0.026186206625937
  10     0.010115286875329
  11    -0.0034951089741421
  12     0.027815033088015
  13    -0.0086102533645329
  14     0.017921459146273
  15    -0.0018776220650528
  16    -0.017697794845451
  17    -0.038245019612766
  18     0.024666549359118
  19    -0.0032512663055567
  20    -0.0024424405414254
  21     0.019585005809462
  22     0.029451645776538
  23    0.00029841651540287
  24    -5.7333842456859e-05
  25    0.0011409643805681
  26    0.0011417594905266
  27    -0.0015002226064488
  28    0.00017731818849688
  29    -0.00014125566155291
  30    -0.00065021292515818
  31    0.00082462032203361
  32    0.00083236166913284
  33    -0.0043273145274537
  34    -0.00084748748835739
  35    -0.0021645750456619
  36    -0.004147909029771
  37    -0.00061756670048777
  38    -0.00014665457562289
  39    -0.00045866820332445
  40    0.00015321600785556
  41    -0.00011631333670533
  42    -0.00033664366873731
  43     0.010587526623009
  44     0.027143273871017
  45    0.00070183120071262
  46    0.00080455541180449
  47    0.00078413471069914
  48    -0.0086896616761886
  49    -0.011687132996071
  50    0.00036774415685604
  51    0.00079285565632568
  52    -0.00072208807337387
  53     0.044840063682812
  54     0.053402853626279
  55    -0.00095461309833108
  56    0.0019488756283099
  57    -0.00097435353656315
  58    -0.00070544722068741
  59    -0.00077567152945152
  60    0.0081156144352436
  61      0.39597867453378
  62     0.034790170134205
  63      0.53413222285104
  64      0.27996426004364
  65     0.022463048373028
  66      0.37689585032578
  67    -0.0031141809547663
  68    0.0021952187731951
  69    -0.0097390225911918
  70    0.0031154180947574
  71    -0.0070908435485762
  72    -0.018520903261006
  73    -0.022840588614172
  74    -0.00096324753018462
  75    0.00013220490268483
  76    -0.00073766894083724
 Sym= A
 Ene=               6
 Spin= Alpha
 Occup=    1.00000
   1    0.00015441879458539
   2     0.020083520380398
   3     0.070407017413175
   4       0.0300922796058
   5    -0.0064714351398437
   6    0.0088699977515042
   7     0.016206089648833
   8    -0.022933490310155
   9    -0.0066142892517975
  10    -0.0014888329312477
  11    0.00048452736791748
  12    -0.00010957279996652
  13    -0.00035903474208659
  14    -0.00068345885659993
  15      0.00133624140099
  16     0.002690450036032
  17    -0.0024305598561896
  18    0.0078523289788005
  19    0.0056313340367191
  20    -0.0010886256639423
  21      0.02478893815507
  22     0.024881209640401
  23    0.0080581924003509
  24    -0.013844250821243
  25     0.021680362587125
  26     0.022041818529815
  27      0.01065499715074
  28    0.0051853037609109
  29    0.0011310902276906
  30    -0.0073097633004344
  31    -0.018927948715532
  32      0.49109812290352
  33      0.42010450589678
  34      -0.1596469264313
  35      0.34829290153473
  36      0.29658840781262
  37     -0.11070992381956
  38    0.0052367978241549
  39    -0.0081115082685129
  40    -0.0075794676019048
  41    -0.0028253256892774
  42    -0.0029160621885286
  43    0.0095574825922502
  44     0.014494526675209
  45    -0.0013373740753459
  46    -0.00061876564414189
  47    0.00015148459187109
  48    -0.043206341300147
  49    -0.047490175438518
  50    -0.0012672082511405
  51    -0.00098438815883149
  52    -0.0014690510760516
  53    -0.014139154102848
  54    -0.020630065101667
  55    0.0025983170782554
  56    -0.00027922056009491
  57    -0.00082837202975962
  58    -0.00062736787393589
  59    -0.00077475323078325
  60    0.0058684789375313
  61    -0.0020329764886396
  62    0.0012829903559758
  63    -0.00090760951608127
  64    -0.0030573377190783
  65    0.0013983604771397
  66    0.00074360971340374
  67    -0.00015649164864545
  68    -5.4058233529763e-05
  69    -0.00023111205751119
  70    8.7096153733072e-05
  71    -0.00041408607672889
  72    0.0083498543243483
  73    -0.029454037728651
  74    -0.0034032000909924
  75    0.00043343338987764
  76    -0.00082219908288165
 Sym= A
 Ene=               7
 Spin= Alpha
 Occup=    1.00000
   1    -0.0013577651870061
   2    -0.0037840151981935
   3    0.0016786082456838
   4    0.0084876420737025
   5    0.0033871433522477
   6    -0.0070457827759013
   7     0.025216541291185
   8    -0.003228729311457
   9    -0.026301866214002
  10    -0.0038782429514269
  11    0.0088791551479665
  12    -0.018109610287097
  13    -0.020954480593176
  14     0.020463940339606
  15    -0.00016000109611358
  16    -0.019459249725368
  17     -0.07014654398413
  18     0.030567218700068
  19    -0.010566430491183
  20    0.0042221882821492
  21      0.01641985143219
  22    0.0025021260567363
  23     0.023463658781263
  24    -0.00094184587851235
  25    -0.00051547827600766
  26    0.00066664844221512
  27    -0.0011122558955493
  28    0.00051552701031873
  29    0.0006202413088092
  30    0.00076856813834197
  31    -0.0057960930096046
  32    -0.0021141929575688
  33    0.0011215652762165
  34    -0.0010759739262505
  35    -0.0031799760479833
  36    -0.00045051708074073
  37    -0.0014593432574232
  38    7.8028505122162e-05
  39    -0.00042134715833034
  40    0.00026030234796735
  41    -0.00014262834906678
  42    1.6423614074159e-05
  43     0.015421980996584
  44     0.021212774137941
  45    0.0025516580958583
  46    0.00085307816121693
  47    0.00046529847702032
  48    -0.0083478485311216
  49     0.029095440396205
  50    -0.0033940082217988
  51    0.00083875841471663
  52    -0.00028433796598474
  53    -0.0089324944369173
  54    -0.013811130872136
  55    -0.0013145222571241
  56    -0.00020511938298537
  57    0.00053639802661616
  58    -0.0011327161215436
  59    0.0077699049779025
  60     0.019500910426891
  61      0.49399390691659
  62      0.22991898941401
  63     -0.38220518522589
  64      0.35029851133337
  65      0.16030234066035
  66     -0.27006617592046
  67    0.0022367428206998
  68    -0.0042733081772149
  69    0.0060125150433892
  70    0.0071800052205686
  71    -0.0075431332241144
  72     0.040552745918796
  73     0.046549414815963
  74    -0.0013600877939762
  75    0.0011772975940001
  76    0.0013612600870889
 Sym= A
 Ene=               8
 Spin= Alpha
 Occup=    1.00000
   1    -0.0020617555527617
   2      -0.1539218693058
   3    0.0036318366067007
   4      0.09608179323886
   5     -0.28198136625575
   6    -0.049404319348002
   7     0.024553765011146
   8    -0.048433352199746
   9    -0.010095192322553
  10     0.027431349875926
  11    0.0044880217565344
  12    -0.015717556186663
  13     0.038802152096729
  14     0.029042739579071
  15    -0.00019579202328394
  16     0.013281058763227
  17     -0.00885483369453
  18     -0.02385356006652
  19    0.0041132988820778
  20    -0.00035440638101543
  21    -0.014352665840054
  22    -0.0034136183310614
  23    0.0044168051193213
  24    0.00063207674771357
  25    0.0018774639205041
  26    -0.00047126866283106
  27    -0.0046400347456385
  28     0.011098633218903
  29    0.00020637746771603
  30    0.00011491429221378
  31    -0.0018157318164306
  32    0.00086283189201403
  33    0.00089682424710536
  34    -0.0008363279585945
  35    0.0060865716889535
  36    0.00052001293267793
  37    -0.00093909015232708
  38    -6.4560077754968e-05
  39    0.00049489056036699
  40    -0.00015000199745679
  41    0.00018632895660182
  42    0.00021884105317136
  43    -0.019300385338235
  44    -0.018945074003897
  45    0.00023175172039434
  46    0.0010993239412859
  47    -0.00046583458254689
  48     0.011715846079955
  49     0.022535975033551
  50    -0.0006726791685755
  51    -0.00056645089841535
  52    -0.00036425279510706
  53    0.0097153879272828
  54     0.019990290876064
  55    0.0013780622488282
  56    -0.0096246613637756
  57    -0.0039421373575915
  58    0.0040351397575196
  59     -0.15186804648716
  60     -0.11917914973301
  61     -0.15412027440214
  62      0.47379972866136
  63      0.08236411207895
  64     -0.10179857481921
  65      0.31134834851862
  66     0.054151052279206
  67    0.0097052951463339
  68     0.001882720318725
  69    -0.0057553670182657
  70     0.014299222911692
  71     0.010685349529754
  72     0.010438737587862
  73     0.020023808784536
  74    0.0012174242587303
  75    -0.010445173303088
  76    0.00047841352214674
 Sym= A
 Ene=               9
 Spin= Alpha
 Occup=    1.00000
   1    -0.00024305668395957
   2     0.013190984773113
   3    -0.008970420865408
   4     0.023478071750601
   5    -0.00074281163002796
   6     0.001372985699428
   7      0.01423917028429
   8    0.0050768363785061
   9    -0.0034514372456556
  10    0.0034856527246083
  11     -0.01123687494439
  12    -0.00093921739373364
  13    -0.0029375276387354
  14    6.0715463472378e-05
  15    -0.0020839069293103
  16     -0.15162565232823
  17    0.0049701269761693
  18    -0.094493285444164
  19    0.00028410457355111
  20     -0.28814134523182
  21    -0.023910866591002
  22    -0.0014630968835629
  23    -0.050232952563914
  24     -0.04978924340808
  25    -0.029298450832375
  26    9.4167279903453e-06
  27    -0.0058520442718399
  28    0.00059890189960661
  29    0.0040174698763855
  30     -0.15197179967732
  31     -0.11920763556006
  32      0.15470206176698
  33    -0.001193781830667
  34      0.48085238628593
  35      0.10206402338814
  36    -0.00076025727010763
  37      0.31606003454389
  38    -0.018088507915505
  39    -0.010874773392151
  40    -8.689998371472e-05
  41    -0.0017877757892426
  42    2.9037193618761e-07
  43     0.012023939192066
  44     0.020555905177178
  45    -0.0014403362757025
  46    -0.0019842681706023
  47      -0.0100914193864
  48     0.012634911394052
  49      0.02035399621344
  50    -0.0012589292217339
  51    0.0020509278388045
  52     -0.01013597463069
  53    -0.017294105135934
  54    -0.018144316215269
  55    -0.00016492270501728
  56    -0.00059178709911815
  57    0.0011062557055957
  58    0.00020607339979931
  59    0.00010505629151551
  60    -0.0018188026720992
  61    -0.00086040947883735
  62    -0.0010157224526673
  63    0.00094455029447756
  64     -0.00605619333504
  65    -0.0010706326321117
  66    0.00065269619961008
  67    -0.0001605396530531
  68    -0.00031030665134505
  69    -9.4395651662935e-05
  70    0.00012803843701264
  71    -0.00044070687805996
  72     0.010041735388339
  73     0.022056944453772
  74    0.00058550746836492
  75    -0.00033381483701208
  76    -0.00057547121757667
 Sym= A
 Ene=              10
 Spin= Alpha
 Occup=    1.00000
   1    -0.00090066650873084
   2    -0.0010871996753147
   3    0.0080338957122136
   4    0.0032804544351123
   5    0.00040155876450817
   6    -0.0026006720365044
   7     0.016747343029824
   8    0.0067604061758125
   9    -0.0035889731046772
  10    -0.00053276865486701
  11    -0.0031646703284146
  12    -4.053760140724e-06
  13    -0.00026121108675542
  14    -0.00026028460787513
  15    -0.0067334171635731
  16    -0.036395227849461
  17    -0.031377174802403
  18    -0.017036728385734
  19    0.00019405865801193
  20    -0.051284457855644
  21    0.0033538513056678
  22    -0.00083815475589668
  23    -0.0035384530653263
  24     0.001842117535533
  25     0.001729204717798
  26    0.00052706775538383
  27    0.00014524956646521
  28    0.00047635453819748
  29    0.0060694364554123
  30      0.46898897691953
  31      0.55132951528726
  32     0.083356902753386
  33    0.0080409998965152
  34      0.22669090573948
  35     0.058336350717626
  36    0.0053666547371781
  37      0.15964321537451
  38    -0.0041808210893944
  39    -0.0026093347304353
  40     -0.00020942140962
  41    -0.00037625277360796
  42    -3.0987708858593e-05
  43    0.00098875629302583
  44     0.012675420315928
  45    -0.0013636348879526
  46    0.00087311711286693
  47    -0.0022013454976676
  48    7.3396920374031e-05
  49     0.011326582931335
  50    -0.001168437376672
  51    -0.0007994197063219
  52    -0.0022501367717306
  53    -0.0031311352259059
  54    -0.0027929296037508
  55    0.00036841280026027
  56    -7.966793167224e-05
  57    0.00079289751009001
  58    0.00043915429078476
  59    0.00077635901005663
  60    -0.0033996709604507
  61    -0.00026435073781459
  62    -0.00062745242836421
  63    -2.8554154300929e-05
  64    -0.002863862201769
  65    -0.0002375320251278
  66    0.00056497063842845
  67    2.9982832862823e-05
  68    -8.1666263328448e-05
  69    -1.9523282112328e-05
  70    3.0719506037651e-05
  71    3.9220896031081e-06
  72    0.00089466169947892
  73     0.015004848729851
  74    0.00020167177743938
  75    0.00037476846567382
  76    -0.00031850465375331
 Sym= A
 Ene=              11
 Spin= Alpha
 Occup=    1.00000
   1    -0.0067322922558557
   2    -0.036483007746378
   3    -0.031435848823094