[Molden Format]
made by pyscf v[2.0.1]
[Atoms] (AU)
C   1   6     0.00000000000000     0.00000000000000     0.00000000000000
C   2   6     2.85272299873892     0.00000000000000     0.00000000000000
H   3   1     3.62066923017674     0.00000000000000     1.90331545357504
F   4   9     3.65943188126013    -2.04308229183900    -1.24074875274501
F   5   9     3.65943188126013     2.04308229183900    -1.24074875274501
F   6   9    -0.80670888252121    -2.36262976149657    -0.36279929541697
H   7   1    -0.76794623143782     1.22342759088295    -1.45802422671364
F   8   9    -0.80670888252121     0.76755391149953     2.26373667011121
[GTO]
1 0
 s    8 1.00
                  6665  0.00069158396281299
                  1000  0.0053257961529341
                   228   0.027060721042034
                 64.71    0.10165684614077
                 21.06     0.2745748236174
                 7.495    0.44829431892377
                 2.797    0.28490261071525
                0.5215   0.015194859206082
 s    8 1.00
                  6665  -0.00029326965268655
                  1000  -0.0023180354739745
                   228  -0.011499786038565
                 64.71  -0.046826727009787
                 21.06   -0.12846616875047
                 7.495   -0.30126627246289
                 2.797   -0.25563070233011
                0.5215      1.093793361012
 s    1 1.00
                0.1596                   1
 p    3 1.00
                 9.439   0.056979251590039
                 2.002    0.31320721150073
                0.5456    0.76037674173753
 p    1 1.00
                0.1517                   1
 d    1 1.00
                  0.55                   1

2 0
 s    8 1.00
                  6665  0.00069158396281299
                  1000  0.0053257961529341
                   228   0.027060721042034
                 64.71    0.10165684614077
                 21.06     0.2745748236174
                 7.495    0.44829431892377
                 2.797    0.28490261071525
                0.5215   0.015194859206082
 s    8 1.00
                  6665  -0.00029326965268655
                  1000  -0.0023180354739745
                   228  -0.011499786038565
                 64.71  -0.046826727009787
                 21.06   -0.12846616875047
                 7.495   -0.30126627246289
                 2.797   -0.25563070233011
                0.5215      1.093793361012
 s    1 1.00
                0.1596                   1
 p    3 1.00
                 9.439   0.056979251590039
                 2.002    0.31320721150073
                0.5456    0.76037674173753
 p    1 1.00
                0.1517                   1
 d    1 1.00
                  0.55                   1

3 0
 s    3 1.00
                 13.01   0.033498726389998
                 1.962    0.23480080117413
                0.4446     0.8136829578829
 s    1 1.00
                 0.122                   1
 p    1 1.00
                 0.727                   1

4 0
 s    8 1.00
                 14710  0.00072067370873197
                  2207  0.0055504869689163
                 502.8   0.028254207662589
                 142.6    0.10639582836653
                 46.47    0.28668420124307
                  16.7    0.44843796582416
                 6.356    0.26464118141135
                 1.316   0.015326060993048
 s    8 1.00
                 14710  -0.00032119389049893
                  2207  -0.0025461915683188
                 502.8  -0.012643359507821
                 142.6   -0.05195749170489
                 46.47   -0.14344713812646
                  16.7   -0.33243762329603
                 6.356   -0.21865906750347
                 1.316     1.0955904138622
 s    1 1.00
                0.3897                   1
 p    3 1.00
                 22.67   0.064834021493887
                 4.977    0.34053535983101
                 1.347    0.73464640679382
 p    1 1.00
                0.3471                   1
 d    1 1.00
                  1.64                   1

5 0
 s    8 1.00
                 14710  0.00072067370873197
                  2207  0.0055504869689163
                 502.8   0.028254207662589
                 142.6    0.10639582836653
                 46.47    0.28668420124307
                  16.7    0.44843796582416
                 6.356    0.26464118141135
                 1.316   0.015326060993048
 s    8 1.00
                 14710  -0.00032119389049893
                  2207  -0.0025461915683188
                 502.8  -0.012643359507821
                 142.6   -0.05195749170489
                 46.47   -0.14344713812646
                  16.7   -0.33243762329603
                 6.356   -0.21865906750347
                 1.316     1.0955904138622
 s    1 1.00
                0.3897                   1
 p    3 1.00
                 22.67   0.064834021493887
                 4.977    0.34053535983101
                 1.347    0.73464640679382
 p    1 1.00
                0.3471                   1
 d    1 1.00
                  1.64                   1

6 0
 s    8 1.00
                 14710  0.00072067370873197
                  2207  0.0055504869689163
                 502.8   0.028254207662589
                 142.6    0.10639582836653
                 46.47    0.28668420124307
                  16.7    0.44843796582416
                 6.356    0.26464118141135
                 1.316   0.015326060993048
 s    8 1.00
                 14710  -0.00032119389049893
                  2207  -0.0025461915683188
                 502.8  -0.012643359507821
                 142.6   -0.05195749170489
                 46.47   -0.14344713812646
                  16.7   -0.33243762329603
                 6.356   -0.21865906750347
                 1.316     1.0955904138622
 s    1 1.00
                0.3897                   1
 p    3 1.00
                 22.67   0.064834021493887
                 4.977    0.34053535983101
                 1.347    0.73464640679382
 p    1 1.00
                0.3471                   1
 d    1 1.00
                  1.64                   1

7 0
 s    3 1.00
                 13.01   0.033498726389998
                 1.962    0.23480080117413
                0.4446     0.8136829578829
 s    1 1.00
                 0.122                   1
 p    1 1.00
                 0.727                   1

8 0
 s    8 1.00
                 14710  0.00072067370873197
                  2207  0.0055504869689163
                 502.8   0.028254207662589
                 142.6    0.10639582836653
                 46.47    0.28668420124307
                  16.7    0.44843796582416
                 6.356    0.26464118141135
                 1.316   0.015326060993048
 s    8 1.00
                 14710  -0.00032119389049893
                  2207  -0.0025461915683188
                 502.8  -0.012643359507821
                 142.6   -0.05195749170489
                 46.47   -0.14344713812646
                  16.7   -0.33243762329603
                 6.356   -0.21865906750347
                 1.316     1.0955904138622
 s    1 1.00
                0.3897                   1
 p    3 1.00
                 22.67   0.064834021493887
                 4.977    0.34053535983101
                 1.347    0.73464640679382
 p    1 1.00
                0.3471                   1
 d    1 1.00
                  1.64                   1

[5d]
[7f]
[9g]

[MO]
 Sym= A
 Ene=               0
 Spin= Alpha
 Occup=    1.00000
   1       1.0019125698116
   2    0.0042301370897163
   3    -0.0074449471286592
   4    -0.00057035948119607
   5    -0.00068101432649854
   6    0.00089450143145058
   7    -0.0015819752856309
   8    -0.00039363156715801
   9    0.00060214213747446
  10    9.7556759933119e-05
  11    -8.8122328695175e-05
  12    0.00023705431159149
  13    -0.0002292640974958
  14    7.1199167355844e-05
  15    -0.00022350240798093
  16    5.0820890873397e-05
  17    0.0032392898111005
  18    -0.00047191093866175
  19    1.4842404433131e-05
  20    5.3081027888136e-06
  21    -0.0015793981792194
  22    9.6752140765598e-05
  23    -0.000423805157697
  24    -5.1401728743581e-05
  25    7.3545271255061e-05
  26    -1.6828833871629e-05
  27    6.4779657140429e-05
  28    -7.6455019585019e-05
  29    -4.1715625395191e-05
  30    0.00041964524560929
  31    -9.6922294842072e-05
  32    4.9481445528918e-06
  33    -2.9583108472498e-05
  34    -1.0356748388649e-05
  35    -7.2375644699859e-06
  36    -0.00013311344524551
  37    -1.5449484227914e-05
  38    1.389911466008e-05
  39    -3.1590576317613e-06
  40    -8.9281793543099e-05
  41    -8.9077638633038e-05
  42    8.1768747093522e-06
  43    -2.0369911969887e-05
  44    -1.027374033485e-05
  45    7.618577430129e-06
  46    2.782302668127e-05
  47    -1.4295581279959e-05
  48    1.1237947254141e-05
  49    2.5834425115963e-05
  50    -0.00026133750854913
  51    2.7182541954887e-06
  52    -1.2767868898334e-06
  53    -1.317363574649e-05
  54    -1.0893777192619e-05
  55    6.1980177868859e-05
  56    4.0912084314789e-05
  57    -1.519846717129e-05
  58    -9.612742039321e-06
  59    -1.5516206988615e-05
  60    1.7573424641601e-05
  61    7.2750608842417e-06
  62    0.00014391713633267
  63    0.00065301299223094
  64    -7.3387164334284e-05
  65    7.8971736683941e-05
  66    0.00032703449985077
  67    8.7550365537113e-05
  68    -0.00014400728859804
  69    -0.00083076995396843
  70    -0.0001826897920026
  71    8.0596192076364e-05
  72    -2.1502377435754e-05
  73    -5.7061290924009e-05
  74    0.00010530266612881
  75    -7.1698773559076e-05
  76    0.00096502527170361
  77    0.0015486545365472
  78    0.0002200447009827
  79    -5.5427284778302e-05
  80    4.8307535147532e-05
  81    0.00016266269483545
  82    0.00069027868528553
  83    -0.00019249449375495
  84    7.3638725061996e-05
  85    -0.0001400964188103
  86    -0.00030390346708653
  87    -0.00014988824328318
  88    0.00032720920989657
  89    0.00082505183680543
  90    -0.00011649388805543
  91    7.143848837812e-05
  92    -9.9210067910148e-05
  93    -3.5222064933318e-06
  94    3.6369110202467e-05
 Sym= A
 Ene=               1
 Spin= Alpha
 Occup=    1.00000
   1    -0.00022349936303095
   2    5.0882482523685e-05
   3    0.0032393117677831
   4    0.00047202090852147
   5    1.4774254115841e-05
   6    5.4854624308967e-06
   7    0.0015794221496474
   8    -0.00019830351516665
   9    0.00038685288617777
  10    -2.8376631159612e-05
  11    0.0001054867158001
  12    1.4863441497165e-05
  13    7.8084319208296e-05
  14    1.1294405904957e-05
  15       1.0019125697215
  16    0.0042301448847753
  17    -0.0074448867908511
  18    0.00057021391328769
  19    5.3289102658955e-05
  20    -0.0011229138967478
  21    0.0015819289488683
  22    8.5510685478181e-05
  23    -0.00071428446189561
  24    -8.3050035689482e-05
  25    -0.00011326145887019
  26    -1.1478046944803e-05
  27    -0.00033352159261925
  28    2.1029863524064e-06
  29    0.0009650283933892
  30    0.0015486474674995
  31    -0.00022004781469532
  32    -1.1408334385403e-05
  33    -7.2631843915729e-05
  34    0.00014391848755963
  35    0.00065297053991329
  36    -7.3435199034227e-05
  37    -7.8990065278768e-05
  38    0.00030669453936231
  39    0.00014313324266401
  40    0.00014400193112126
  41    -0.00075390524952849
  42    -0.0003940676695674
  43    4.1633180748634e-05
  44    2.9614753296786e-05
  45    -0.00011068342808295
  46    8.2810545867033e-05
  47    6.8745975375079e-05
  48    0.00016266433561857
  49    0.00069023545967114
  50    -0.00019254294635709
  51    -7.3649495308011e-05
  52    -0.00030258646545345
  53    0.00014272203849767
  54    0.00014988710567075
  55    0.00078104033801196
  56    -0.00042171980838938
  57    4.1579093067751e-05
  58    3.1347076270781e-05
  59    0.00011831855106317
  60    8.7744300061348e-05
  61    -7.3780175907565e-05
  62    -1.0356780811019e-05
  63    -7.2375644350999e-06
  64    -0.0001331178207876
  65    1.5428278467547e-05
  66    8.6157780722028e-06
  67    1.1352911513323e-05
  68    8.9260250039255e-05
  69    -6.2982183676408e-05
  70    -6.3524423866769e-05
  71    -2.4198906263969e-05
  72    1.3190629350161e-06
  73    2.3499419551505e-06
  74     2.56130627453e-05
  75    1.7555896644294e-05
  76    -4.1733178697101e-05
  77    0.00041963042038634
  78    9.6924670225769e-05
  79    -1.522478796847e-05
  80    2.5841891852778e-05
  81    1.1237807296767e-05
  82    2.5835610479991e-05
  83    -0.00026134204257037
  84    -2.7336456826722e-06
  85    -9.4428633430309e-06
  86    9.2763807363552e-06
  87    1.0876111193317e-05
  88    7.3780207569075e-05
  89    8.5028679076561e-06
  90    1.1657213659741e-06
  91    -1.2041246194276e-05
  92    7.0036245309456e-06
  93    2.7022053775851e-05
  94    6.0552996985926e-07
 Sym= A
 Ene=               2
 Spin= Alpha
 Occup=    1.00000
   1    7.110990943263e-05
   2    8.690401819735e-05
   3    -0.0016817231525273
   4    -0.00011512341817454
   5    -3.4378840812221e-06
   6    -1.8798751881285e-06
   7    -0.00084770365773311
   8    0.00039063689317801
   9    0.00022524209731668
  10    -9.038520090051e-06
  11    1.2994197864052e-05
  12    4.5861910361576e-05
  13    -6.6231745712945e-05
  14    2.2386258003979e-05
  15    -0.00019877630235428
  16    0.00027625845849185
  17    0.0038698787569136
  18    0.0003974382258136
  19    -0.00083019969808742
  20    -0.00051777469969297
  21    -0.00029433618190961
  22    -0.0012083495146683
  23    -0.0011329468033287
  24    -3.795984945565e-05
  25    -6.525041928297e-05
  26      8.5677773518e-05
  27    -5.8564659542411e-05
  28    -5.9800676584528e-05
  29    -0.00023855264182284
  30    -7.2563375963092e-05
  31    -7.988741811059e-06
  32    0.00013139200165043
  33    9.8344031306003e-05
  34       1.0010288086717
  35    0.00075765697804483
  36    -0.0058508217525995
  37    -0.0007074784321506
  38    0.0019648780691933
  39    0.0012056452204136
  40    0.00027371977486005
  41    -0.00054853280933687
  42    -0.00022715174489104
  43    1.2053554125147e-05
  44    4.1384110243121e-05
  45    -8.2507378053378e-05
  46    7.3325012095522e-05
  47    6.2521705215289e-05
  48    0.00010136233544038
  49    0.00016941278135754
  50    -0.00073200000390822
  51    2.7231813817155e-06
  52    3.6420645618966e-05
  53    -4.3297701641357e-05
  54    4.514244522143e-05
  55    0.00043336015382383
  56    0.00013802209530801
  57    1.8170536832146e-05
  58    -1.17969453671e-05
  59    3.3791480106753e-06
  60    1.8371741375681e-05
  61    -1.2167492848135e-05
  62    -4.4227670497317e-05
  63    -8.964069150006e-05
  64    0.00028463209123026
  65    -2.458320253981e-05
  66    -2.9795597230602e-05
  67    1.4142940365289e-05
  68    4.4130879306644e-05
  69    8.1501681105622e-05
  70    -3.3801445846811e-05
  71    1.4891930248317e-05
  72    2.8704597905864e-06
  73    -1.7555750875165e-06
  74    -9.2560502340392e-06
  75    -1.5757888456026e-06
  76    0.00013440966309127
  77    -0.00011842376673021
  78    7.1502537270675e-06
  79    -3.8636570714469e-05
  80    -1.6092350897058e-05
  81    -2.1139898888343e-05
  82    -3.4708897928776e-05
  83    0.00012593201530765
  84    -1.5839796412695e-05
  85    -2.9317780701731e-06
  86    -1.3021617021069e-05
  87    0.00017822740231964
  88    -5.2450964526839e-05
  89    -2.5640843402304e-05
  90    -4.2654437171905e-06
  91    -3.470941770852e-06
  92    1.1687563145073e-05
  93    -4.3901659508109e-06
  94    -2.3153256776957e-06
 Sym= A
 Ene=               3
 Spin= Alpha
 Occup=    1.00000
   1    -0.00019882999403336
   2    0.00027590550006169
   3    0.0038698767839837
   4    -0.00039727048411842
   5    -0.00096825969689041
   6    -0.00013689443695037
   7    0.00029438644931508
   8    -0.0016538871471737
   9    9.1270028744993e-05
  10    -6.652459416176e-05
  11    -1.1570712538969e-05
  12    4.629113828656e-05
  13    -7.5065431649058e-05
  14    8.7706734937549e-05
  15    7.1105825135627e-05
  16    8.6878308628858e-05
  17    -0.0016817661182172
  18    0.00011514103045592
  19    -3.8289303141485e-06
  20    -7.7596185387403e-07
  21    0.00084773362431278
  22    0.00044402501634653
  23    7.8511090188818e-05
  24    -1.8851604022924e-05
  25    -4.4403186245538e-06
  26    3.2363757910569e-05
  27    -7.1904415801123e-05
  28    -2.5529456849618e-05
  29    0.00013440158760805
  30    -0.00011841725674187
  31    -7.1494982898956e-06
  32    -3.9940113665656e-05
  33    -1.2508567311833e-05
  34    -4.422751381123e-05
  35    -8.9641900358655e-05
  36    0.00028461994412781
  37    2.4573423444456e-05
  38    -1.3710400058214e-05
  39    -2.9979460368138e-05
  40    -4.4151164228524e-05
  41    4.0701337795625e-05
  42    7.8288672595439e-05
  43    1.0470982952082e-05
  44    3.2111305230918e-06
  45    -7.8393912939441e-06
  46    -1.1806634135584e-05
  47    -6.3646503343942e-07
  48    -2.1141320156466e-05
  49    -3.4726207170719e-05
  50    0.00012591339001874
  51    1.589200903245e-05
  52    -1.0614369196539e-05
  53    8.0761375694434e-06
  54    -0.00017819743124409
  55    -5.6662198059659e-05
  56    -1.4075130786585e-05
  57    -1.0019399538957e-05
  58    -1.1702264213591e-06
  59    3.7698887594863e-06
  60    -7.7117046741376e-06
  61    4.004206676495e-06
  62       1.0010288102437
  63    0.00075962167869595
  64    -0.0058484900792725
  65    0.00070746960062619
  66    0.0022783953488966
  67    0.00033981523685249
  68    -0.00027371392614456
  69    -0.00056739073360498
  70    -0.00017830682730978
  71    4.8738947070936e-05
  72    -8.4829373843871e-06
  73    -3.2056964967251e-05
  74    9.4530049533028e-05
  75    -7.4511444056515e-05
  76    -0.00023846620357504
  77    -7.2401143706361e-05
  78    7.9956581391488e-06
  79    0.00016388018374308
  80    9.1232460544882e-06
  81    0.00010136702520724
  82    0.00016944242981273
  83    -0.00073203072179126
  84    -2.7760985450476e-06
  85    -8.1217375085462e-08
  86    5.6550195198797e-05
  87    -4.5192360752735e-05
  88    0.00042058663851405
  89    0.00017281885308619
  90    -2.5468192079261e-06
  91    -1.2172554861966e-06
  92    -2.5134847148085e-05
  93    6.4113853948656e-06
  94    1.6904475513001e-05
 Sym= A
 Ene=               4
 Spin= Alpha
 Occup=    1.00000
   1    7.7184657307831e-05
   2    0.00010776580765729
   3    -0.001523053094762
   4    -0.00014415574682789
   5    3.1322914025481e-05
   6    -2.5604251724733e-05
   7    -0.00063742035938324
   8    -0.00021675897757762
   9    0.00034802356739715
  10    1.2655196598375e-05
  11    4.2577206873154e-05
  12    -7.2736432925727e-05
  13    -6.5510034840096e-05
  14    -2.2347148569631e-05
  15    -0.00018064525799489
  16    0.00028464610201914
  17    0.0035416541848035
  18    0.00038969778025235
  19    0.00079417219135918
  20    -0.00049804888035273
  21    -0.00019322106722408
  22    0.0011573280573711
  23    -0.0010838291091415
  24    -2.4221482498439e-05
  25    -4.1276593035463e-05
  26    -9.2990822229321e-05
  27    -6.0701187257534e-05
  28    7.0047605976532e-05
  29    -0.00024026646006479
  30    -6.9181461657939e-05
  31    -5.4156688074837e-06
  32    -0.00012974700345376
  33    0.00010221229347742
  34    9.627951288372e-05
  35    0.00016107720071474
  36    -0.00068313951538902
  37    -3.0417947109306e-07
  38    -3.5979294301525e-05
  39    -3.9133349105944e-05
  40    4.4163886942871e-05
  41    -0.00039965405058603
  42    0.00013558558881768
  43    1.7979516556619e-05
  44    -1.1724785148935e-05
  45    -1.9323568537966e-06
  46    1.5109888462761e-05
  47    1.1626942809996e-05
  48       1.0010202310925
  49    0.00089390692403932
  50    -0.0056026410507866
  51    -0.0007404610307691
  52    -0.0018592109116745
  53    0.0011111479298222
  54    0.00026333913061457
  55    0.00056419267384442
  56    -0.00028591648905738
  57    1.1002138243596e-05
  58    4.2230875410362e-05
  59    8.5280579542453e-05
  60    7.2680454312452e-05
  61    -5.8014975071728e-05
  62    -2.2659573887089e-05
  63    -3.9217526804908e-05
  64    0.00015869207203803
  65    -4.4368454585199e-06
  66    6.7819806818961e-06
  67    6.8355980562114e-06
  68    0.0001064581798175
  69    6.1259219654995e-05
  70    -3.9452181204308e-05
  71    -2.2263278028251e-06
  72    6.1033609360284e-07
  73    -1.3812683871949e-05
  74    -7.1916093449753e-06
  75    -6.697354887855e-07
  76    7.8279527860979e-05
  77    9.1537881422946e-05
  78    -4.4602907214473e-05
  79    -6.8752508085962e-06
  80    -1.8704779714498e-05
  81    1.2457672544626e-05
  82    3.0862960398386e-05
  83    1.9836468564486e-05
  84    1.8061480720739e-05
  85    -9.8105997184893e-07
  86    -1.4258868588848e-05
  87    2.2781229201123e-05
  88    -1.4090821160464e-05
  89    -3.2587287887768e-05
  90    1.4675595785119e-05
  91    1.5033020892682e-06
  92    -1.1274639484724e-06
  93    -4.8402169745856e-06
  94    -5.52602630591e-06
 Sym= A
 Ene=               5
 Spin= Alpha
 Occup=    1.00000
   1    -0.00018065695371007
   2    0.00028455166159071
   3    0.0035416170538421
   4    -0.00038965510364499
   5    0.00028819969061631
   6    0.00089189930487101
   7    0.0001932210040354
   8    0.00018989527396317
   9    0.0015741835837744
  10    9.1810994414399e-05
  11    -7.6633008834652e-05
  12    6.670069270583e-05
  13    6.2846874982505e-06
  14    -2.7124445616343e-05
  15    7.7183714863554e-05
  16    0.00010775316872202
  17    -0.0015230654895956
  18    0.00014416478399077
  19    7.5337675428425e-06
  20    3.9737363863706e-05
  21    0.00063740393757324
  22    5.7665939565579e-05
  23    -0.00040595077772349
  24    9.0288407009352e-05
  25    4.6986035449095e-05
  26    3.4094977313407e-05
  27    -2.0690200095436e-05
  28    -1.0248009353904e-05
  29    7.8274185689235e-05
  30    9.1568020570471e-05
  31    4.4601791597617e-05
  32    -1.7289855568658e-05
  33    9.9100863381505e-06
  34    -2.2660263865227e-05
  35    -3.9217486060611e-05
  36    0.00015869735623057
  37    4.4339189248104e-06
  38    9.5878081273274e-06
  39    -8.7415413514572e-07
  40    -0.00010645957997409
  41    2.1567819572119e-05
  42    6.9604445122011e-05
  43    1.3507102715546e-05
  44    8.9798820289436e-07
  45    7.8386517901586e-06
  46    1.8921433427192e-06
  47    1.2061216135678e-07
  48    1.2458292355337e-05
  49    3.0863214675603e-05
  50    1.9829502532271e-05
  51    -1.8059881284872e-05
  52    -9.9155665667818e-06
  53    1.0291555744345e-05
  54    -2.2776813875453e-05
  55    -3.1739877480888e-05
  56    1.590656106747e-05
  57    8.2736138204702e-06
  58    4.7038054330732e-06
  59    -9.9371342369456e-06
  60    -8.5363899998694e-06
  61    3.2667604153416e-06
  62    9.6279354912891e-05
  63    0.00016108894654667
  64    -0.00068312026468749
  65    3.1043281221597e-07
  66    -5.2689527278087e-05
  67     6.85666008733e-06
  68    -4.4159700949237e-05
  69    -0.00021897818062185
  70    -0.00036075038841865
  71    3.0776139273719e-06
  72    -1.6455589857659e-05
  73    -2.2440402437261e-05
  74    6.5069629756859e-06
  75    -1.3697194679731e-06
  76    -0.00024027145497022
  77    -6.9162891798128e-05
  78    5.417743200396e-06
  79    -3.3692651673766e-05
  80    -0.00016170329889197
  81       1.0010202306653
  82    0.00089438979797003
  83    -0.0056020674484481
  84    0.00074049811982248
  85    -0.000709727930117
  86    -0.0020459275271088
  87    -0.00026330809351861
  88    0.00024860347003005
  89    0.00058190607421349
  90    -9.4563924509251e-05
  91    6.9644440865763e-05
  92    -5.9988387394825e-05
  93    1.1738341084561e-05
  94    1.7298775981919e-05
 Sym= A
 Ene=               6
 Spin= Alpha
 Occup=    1.00000
   1    0.00090535614185289
   2     0.014139532655394
   3     0.014044573614019
   4    -0.016573306571405
   5     0.012898531238624
   6     0.034938994114865
   7    -0.019453185878068
   8    0.0089402187288379
   9     0.047749789796032
  10    -0.013167360865495
  11    -0.0042040695141399
  12    -0.035054706741317
  13    0.0072403377026616
  14     0.018204212944513
  15    0.0016082874778194
  16     0.013306711155977
  17     0.015291029414221
  18    -0.024122062589957
  19    -0.001307259929184
  20    -0.0052719447567408
  21    -0.017169128031423
  22    0.0016056743499567
  23     -0.01082054096475
  24    0.00039087491239969
  25    -0.00021682440265194
  26    0.00050502857707069
  27    -0.00020576048805676
  28    0.0009298225198561
  29    -0.0076318151618738
  30    -0.0016573950614546
  31      0.00030903923204
  32    -0.0005786803969987
  33    0.00052929948925284
  34    0.0012662445244807
  35    0.0066904224137123
  36    0.0025409353712957
  37      -0.0119938876213
  38    0.00092802828243881
  39    0.00038849258881632
  40    -0.0042833360543597
  41    0.0017120350855217
  42    0.0038803453606638
  43    0.00055580361246081
  44    -0.00035766403903547
  45    0.00018766392724605
  46    -0.0011457333275094
  47    -0.00078572598756138
  48    -0.00049418808666982
  49    -0.0025415819587398
  50    -0.0021379041992907
  51    0.0057769575487096
  52    0.0010636433461456
  53    -0.0011649020258164
  54    0.0038923388716128
  55    0.00084069054760534
  56    -0.00058995451826085
  57    -0.00027395330979387
  58    -0.00023290296150925
  59    0.00014689041856194
  60    0.00039648544636665
  61    0.0004077282702425
  62    0.00027001196970504
  63    0.0022519228331758
  64    -0.000853717572006
  65      -0.3187377092143
  66     0.017444704929842
  67      0.58245869159659
  68       -0.220406263635
  69    0.0094826415758136
  70      0.40082310628276
  71    0.0032104822861464
  72    0.0036549019066976
  73     0.012319492372188
  74    -0.0026915330654919
  75    -0.0068476963492391
  76     0.023808283851588
  77      0.01735693418506
  78    -0.00065384990292357
  79    -0.00073343057952065
  80    -0.00077277921712768
  81    0.0016191929738526
  82    -0.014148589367943
  83    -0.050795369563708
  84    -0.0060660943172935
  85     0.026836996160756
  86     0.037181603293195
  87    -0.0052540362993966
  88     0.026311568333376
  89     0.034173531550454
  90    -0.00024601620515547
  91    -0.00015840950588241
  92    -0.00033906849308097
  93    -0.00043702328265429
  94    0.0007465953829155
 Sym= A
 Ene=               7
 Spin= Alpha
 Occup=    1.00000
   1    0.00096669381362186
   2     0.033468902475792
   3     0.090816820159878
   4     0.042204496411123
   5    0.0064277306322515
   6    -0.0099471917868368
   7     0.017698976145442
   8    -0.0086749474521916
   9    -0.0063565452957571
  10    0.00015409037891974
  11    -0.0013591994272256
  12    0.0008748091072809
  13    0.0014282423437853
  14    0.00073570799327627
  15    0.0029633215101147
  16    0.0038436924252455
  17    -0.011986217741905
  18    0.0009079000621684
  19    0.0016012987167508
  20    -0.00089563778227707
  21     0.031389560275368
  22     0.016822093312027
  23     0.010023916309135
  24     -0.02313571790236
  25    -0.010436598985908
  26     0.016993942612009
  27     0.012028396618076
  28     0.026256021440989
  29    -0.050693901195189
  30    -0.046927626445054
  31    -0.0018204445742653
  32    -0.002886219486819
  33    0.00074823126816237
  34    -0.00070889910982853
  35    -0.00030010614722713
  36    0.0087515419701909
  37    -0.0037915630205535
  38    0.0011714567084852
  39    -0.0015645177054157
  40    -0.0056133042565978
  41     0.001251477984583
  42    0.00044797871020879
  43    -0.00057440576091346
  44    -0.00024050040607908
  45    0.00031711712057277
  46    0.00027540022810447
  47    0.00030822681592978
  48     0.001458995379147
  49    -0.0074297852168059
  50    -0.019946098643116
  51       0.5498032601905
  52     0.013322343791892
  53      0.38116574508573
  54      0.38230120826414
  55     0.010955217661091
  56      0.26294150036095
  57    0.0068977618508661
  58     0.002707915015577
  59    -0.0061724208778987
  60    -0.0038402167700207
  61    -0.0094132392810064
  62    0.00066513922807632
  63    -0.0030847797899029
  64    -0.018489208883596
  65    -0.0081979700358231
  66    -0.0091954450986918
  67    5.4431669013997e-05
  68    -0.0056654290845683
  69    -0.011812847673737
  70    -0.0016169653754669
  71    -0.00017263641864101
  72    1.7985531766003e-05
  73    -0.00028701819220023
  74    0.00063799213348002
  75    0.00064623487700982
  76     0.011212955718197
  77    -0.030108684845138
  78    -0.0037779077637171
  79    -0.0014432562190611
  80    0.0017300718735691
  81    0.00045332043998397
  82    -0.0014491537581597
  83    -0.0095922939824235
  84    -0.0036627770942937
  85    0.0012676814212455
  86    0.0063503069823598
  87    -0.0046129808043198
  88    0.0047804472582697
  89    0.0079961823684621
  90    -0.00016353387505616
  91    -0.00051485153197684
  92    -0.0003289234912469
  93    0.00025874965584099
  94    -0.00012001158326416
 Sym= A
 Ene=               8
 Spin= Alpha
 Occup=    1.00000
   1    -0.0029634252515883
   2    -0.0038442013377451
   3     0.011986809261424
   4    0.00090784533253041
   5    -0.00065292531993008
   6    -0.0017169894463834
   7     0.031389050039638
   8    -0.019331733101165
   9    -0.0031342885671196
  10     0.027595002177477
  11      0.02487125785001
  12    -0.010859173432126
  13    -0.0094532253591735
  14     0.013404828269359
  15    -0.00096657655019888
  16    -0.033468156751084
  17    -0.090816339448076
  18     0.042203602440806
  19    0.0014699655257242
  20     -0.01175156776954
  21     0.017698631846304
  22      0.01073109907812
  23    0.00070620457606634
  24    0.0011985688157253
  25    0.0015141791386811
  26    0.00098655873739526
  27    -0.0006472340099263
  28    -0.00031005863713318
  29    -0.011212540857958
  30     0.030109036401257
  31    -0.0037779095995983
  32    -6.5045000223956e-06