[Molden Format]
made by pyscf v[2.0.1]
[Atoms] (AU)
C   1   6     0.00000000000000     0.00000000000000     0.00000000000000
C   2   6     2.85272299873892     0.00000000000000     0.00000000000000
H   3   1     3.62066923017674     0.00000000000000     1.90331545357504
F   4   9     3.65943188126013    -2.04308229183900    -1.24074875274501
F   5   9     3.65943188126013     2.04308229183900    -1.24074875274501
F   6   9    -0.80670888252121     2.04308229183900    -1.24074875274501
H   7   1    -0.76794623143782     0.00000000000000     1.90331545357504
F   8   9    -0.80670888252121    -2.04308229183900    -1.24074875274501
[GTO]
1 0
 s    8 1.00
                  6665  0.00069158396281299
                  1000  0.0053257961529341
                   228   0.027060721042034
                 64.71    0.10165684614077
                 21.06     0.2745748236174
                 7.495    0.44829431892377
                 2.797    0.28490261071525
                0.5215   0.015194859206082
 s    8 1.00
                  6665  -0.00029326965268655
                  1000  -0.0023180354739745
                   228  -0.011499786038565
                 64.71  -0.046826727009787
                 21.06   -0.12846616875047
                 7.495   -0.30126627246289
                 2.797   -0.25563070233011
                0.5215      1.093793361012
 s    1 1.00
                0.1596                   1
 p    3 1.00
                 9.439   0.056979251590039
                 2.002    0.31320721150073
                0.5456    0.76037674173753
 p    1 1.00
                0.1517                   1
 d    1 1.00
                  0.55                   1

2 0
 s    8 1.00
                  6665  0.00069158396281299
                  1000  0.0053257961529341
                   228   0.027060721042034
                 64.71    0.10165684614077
                 21.06     0.2745748236174
                 7.495    0.44829431892377
                 2.797    0.28490261071525
                0.5215   0.015194859206082
 s    8 1.00
                  6665  -0.00029326965268655
                  1000  -0.0023180354739745
                   228  -0.011499786038565
                 64.71  -0.046826727009787
                 21.06   -0.12846616875047
                 7.495   -0.30126627246289
                 2.797   -0.25563070233011
                0.5215      1.093793361012
 s    1 1.00
                0.1596                   1
 p    3 1.00
                 9.439   0.056979251590039
                 2.002    0.31320721150073
                0.5456    0.76037674173753
 p    1 1.00
                0.1517                   1
 d    1 1.00
                  0.55                   1

3 0
 s    3 1.00
                 13.01   0.033498726389998
                 1.962    0.23480080117413
                0.4446     0.8136829578829
 s    1 1.00
                 0.122                   1
 p    1 1.00
                 0.727                   1

4 0
 s    8 1.00
                 14710  0.00072067370873197
                  2207  0.0055504869689163
                 502.8   0.028254207662589
                 142.6    0.10639582836653
                 46.47    0.28668420124307
                  16.7    0.44843796582416
                 6.356    0.26464118141135
                 1.316   0.015326060993048
 s    8 1.00
                 14710  -0.00032119389049893
                  2207  -0.0025461915683188
                 502.8  -0.012643359507821
                 142.6   -0.05195749170489
                 46.47   -0.14344713812646
                  16.7   -0.33243762329603
                 6.356   -0.21865906750347
                 1.316     1.0955904138622
 s    1 1.00
                0.3897                   1
 p    3 1.00
                 22.67   0.064834021493887
                 4.977    0.34053535983101
                 1.347    0.73464640679382
 p    1 1.00
                0.3471                   1
 d    1 1.00
                  1.64                   1

5 0
 s    8 1.00
                 14710  0.00072067370873197
                  2207  0.0055504869689163
                 502.8   0.028254207662589
                 142.6    0.10639582836653
                 46.47    0.28668420124307
                  16.7    0.44843796582416
                 6.356    0.26464118141135
                 1.316   0.015326060993048
 s    8 1.00
                 14710  -0.00032119389049893
                  2207  -0.0025461915683188
                 502.8  -0.012643359507821
                 142.6   -0.05195749170489
                 46.47   -0.14344713812646
                  16.7   -0.33243762329603
                 6.356   -0.21865906750347
                 1.316     1.0955904138622
 s    1 1.00
                0.3897                   1
 p    3 1.00
                 22.67   0.064834021493887
                 4.977    0.34053535983101
                 1.347    0.73464640679382
 p    1 1.00
                0.3471                   1
 d    1 1.00
                  1.64                   1

6 0
 s    8 1.00
                 14710  0.00072067370873197
                  2207  0.0055504869689163
                 502.8   0.028254207662589
                 142.6    0.10639582836653
                 46.47    0.28668420124307
                  16.7    0.44843796582416
                 6.356    0.26464118141135
                 1.316   0.015326060993048
 s    8 1.00
                 14710  -0.00032119389049893
                  2207  -0.0025461915683188
                 502.8  -0.012643359507821
                 142.6   -0.05195749170489
                 46.47   -0.14344713812646
                  16.7   -0.33243762329603
                 6.356   -0.21865906750347
                 1.316     1.0955904138622
 s    1 1.00
                0.3897                   1
 p    3 1.00
                 22.67   0.064834021493887
                 4.977    0.34053535983101
                 1.347    0.73464640679382
 p    1 1.00
                0.3471                   1
 d    1 1.00
                  1.64                   1

7 0
 s    3 1.00
                 13.01   0.033498726389998
                 1.962    0.23480080117413
                0.4446     0.8136829578829
 s    1 1.00
                 0.122                   1
 p    1 1.00
                 0.727                   1

8 0
 s    8 1.00
                 14710  0.00072067370873197
                  2207  0.0055504869689163
                 502.8   0.028254207662589
                 142.6    0.10639582836653
                 46.47    0.28668420124307
                  16.7    0.44843796582416
                 6.356    0.26464118141135
                 1.316   0.015326060993048
 s    8 1.00
                 14710  -0.00032119389049893
                  2207  -0.0025461915683188
                 502.8  -0.012643359507821
                 142.6   -0.05195749170489
                 46.47   -0.14344713812646
                  16.7   -0.33243762329603
                 6.356   -0.21865906750347
                 1.316     1.0955904138622
 s    1 1.00
                0.3897                   1
 p    3 1.00
                 22.67   0.064834021493887
                 4.977    0.34053535983101
                 1.347    0.73464640679382
 p    1 1.00
                0.3471                   1
 d    1 1.00
                  1.64                   1

[5d]
[7f]
[9g]

[MO]
 Sym= A
 Ene=               0
 Spin= Alpha
 Occup=    1.00000
   1    -0.00024571044892182
   2    -5.8786648539933e-06
   3    0.0033757391328255
   4    0.00048603047895184
   5    2.2479977177457e-10
   6    9.7678690503764e-07
   7    0.0014142813866531
   8    3.9935156100154e-11
   9    -2.5128198260794e-05
  10    -3.8669382136361e-05
  11    0.00013562555067793
  12    -6.126223582137e-11
  13    4.1405500033516e-05
  14    2.9056526315867e-11
  15       1.0019079433227
  16    0.0042237885538538
  17    -0.0073006267562345
  18    0.00055021359863058
  19    -2.1397683732304e-10
  20    -0.00097949548778451
  21    0.0015018048459092
  22    2.609862665571e-10
  23    -0.00052376470074238
  24    -5.8245242830505e-05
  25    -9.4406006844895e-05
  26    1.6355196976792e-10
  27    -0.00030653624285234
  28    -1.3677428667283e-10
  29    0.00086429578836795
  30    0.0015168514619701
  31    -0.00020261732183339
  32    -2.2788743137163e-11
  33    -2.2895291247625e-05
  34    0.0001405737592362
  35    0.0006457262883685
  36    -5.0725099746887e-05
  37    -8.2295299161509e-05
  38    0.00030351591611303
  39    0.00015053308878808
  40    0.00015333983074389
  41    -0.00072574900201407
  42    -0.0004179613571144
  43    3.8620768688562e-05
  44    2.7622532930642e-05
  45    -0.00010991138253438
  46    7.9071007903166e-05
  47    6.8467897173875e-05
  48    0.00014057348776858
  49    0.00064572606722221
  50    -5.0725459597581e-05
  51    -8.2297381439233e-05
  52    -0.00030351209558293
  53    0.00015053535979181
  54    0.00015333837724438
  55    0.00072575166276831
  56    -0.00041795977093634
  57    3.8620825085065e-05
  58    2.7622489757789e-05
  59    0.00010991139553011
  60    7.9071092192229e-05
  61    -6.846789527645e-05
  62    -9.7152953234424e-06
  63    -3.3463701937124e-06
  64    -0.00013615713388014
  65    1.7266993687838e-05
  66    -1.6159828306852e-05
  67    5.5697330905143e-06
  68    9.7683584239192e-05
  69    8.2728872286367e-05
  70    -3.3289022853455e-05
  71    -1.5344048467466e-05
  72    1.0853431640837e-05
  73    -4.4838492051129e-06
  74    3.3072882306376e-05
  75    -1.4692536688307e-05
  76    -8.918308649738e-05
  77    7.3823752993899e-05
  78    5.4328236922236e-05
  79     8.76297118218e-12
  80    -6.5863181281359e-05
  81    -9.7153161939257e-06
  82    -3.346542862818e-06
  83    -0.00013615722419844
  84    1.7265459183461e-05
  85    1.6159968497782e-05
  86    5.5698962752281e-06
  87    9.7682544389169e-05
  88    -8.2728715387658e-05
  89    -3.3288892294698e-05
  90    -1.5344039859014e-05
  91    1.0853408586296e-05
  92    4.4838501012723e-06
  93    3.307286226129e-05
  94    1.4692513043479e-05
 Sym= A
 Ene=               1
 Spin= Alpha
 Occup=    1.00000
   1       1.0019079431605
   2    0.0042237885716277
   3    -0.0073006249679703
   4    -0.00055021804598718
   5    -1.8117848848969e-09
   6    -0.00097948755158482
   7    -0.0015018060687542
   8    -4.0267767875434e-10
   9    -0.00052376316307037
  10    -5.8244685806625e-05
  11    9.4405679052046e-05
  12    2.4795643278808e-10
  13    -0.00030653587826208
  14    6.459960118925e-11
  15    -0.00024571184514221
  16    -5.8804342578069e-06
  17    0.0033757370956307
  18    -0.00048602781398056
  19    -3.7513384848791e-10
  20    9.7646038159834e-07
  21    -0.0014142804597152
  22    -1.0025912644538e-10
  23    -2.5128060471254e-05
  24    -3.866925386971e-05
  25    -0.00013562589510861
  26    4.8753064112027e-11
  27    4.1405134036773e-05
  28    9.067260651473e-11
  29    -8.9183530265105e-05
  30    7.3823699723235e-05
  31    -5.4328174577612e-05
  32    -3.0968507268812e-12
  33    -6.5863194155401e-05
  34    -9.715297027416e-06
  35    -3.3461733419615e-06
  36    -0.00013615659995021
  37    -1.7268484092704e-05
  38    1.6160189702107e-05
  39    5.5699802665708e-06
  40    -9.7684795928226e-05
  41    -8.2728547926168e-05
  42    -3.3288897796197e-05
  43    -1.5344047052163e-05
  44    -1.0853432545534e-05
  45    4.4838562442689e-06
  46    3.3072864832785e-05
  47    -1.4692539816029e-05
  48    -9.7153049805953e-06
  49    -3.3465335602106e-06
  50    -0.00013615685432285
  51    -1.7266893379238e-05
  52    -1.6160379689043e-05
  53    5.5700323966304e-06
  54    -9.7683756429875e-05
  55    8.2728380543372e-05
  56    -3.328883357058e-05
  57    -1.5344036000234e-05
  58    -1.0853404657925e-05
  59    -4.4838486460542e-06
  60    3.3072841812042e-05
  61    1.4692508411977e-05
  62    0.00014057379191116
  63    0.00064572385146734
  64    -5.0727610565435e-05
  65    8.2292071508263e-05
  66    -0.0003035124390301
  67    0.00015053048542358
  68    -0.00015334169411359
  69    0.00072575119288852
  70    -0.00041796334121606
  71    3.8620877540138e-05
  72    -2.7622632525482e-05
  73    0.00010991146666693
  74    7.9071074387029e-05
  75    6.8468095711874e-05
  76    0.00086430356354977
  77    0.0015168543509435
  78    0.00020261755391961
  79    -3.8277490715903e-11
  80    -2.289573913792e-05
  81    0.00014057337841306
  82    0.00064572563562807
  83    -5.0726278611026e-05
  84    8.2295659797517e-05
  85    0.00030351261034582
  86    0.00015053364921161
  87    -0.00015333931552798
  88    -0.00072575129893697
  89    -0.00041796130957112
  90    3.8620908403415e-05
  91    -2.7622534477206e-05
  92    -0.00010991136423067
  93    7.9071090515288e-05
  94    -6.8468003223693e-05
 Sym= A
 Ene=               2
 Spin= Alpha
 Occup=    1.00000
   1    7.7129639078778e-05
   2    9.6727005362842e-05
   3    -0.0017724744695415
   4    -0.00011704814500172
   5    -9.5851056089235e-06
   6    -1.3255041848181e-05
   7    -0.0007952040260463
   8    -0.00033162207761454
   9    0.00056700165429865
  10    -2.8117593455802e-06
  11     3.21678708619e-05
  12    -5.3945935918623e-05
  13    -4.8866749659884e-05
  14    -2.1675468225646e-05
  15    -0.00020334301889265
  16    0.00026369842402393
  17     0.003858909077713
  18    0.00040219898890622
  19    0.00082343669019017
  20    -0.00051188782553717
  21    -0.00032374800187425
  22     0.001177563410397
  23    -0.0012073152835666
  24    -3.1700866144406e-05
  25    -3.8082409500654e-05
  26    -8.3322110655225e-05
  27    -5.3450251692334e-05
  28    6.1498112442527e-05
  29    -0.00024906586010191
  30    -3.1566096927889e-05
  31    -3.0360237145114e-07
  32    -0.00012866273863688
  33    0.00010254313874729
  34    0.00010564554069091
  35    0.00017747788172486
  36    -0.00075648589601028
  37    1.2789662271072e-06
  38    -3.7467724787256e-05
  39    -4.2367660495237e-05
  40    5.165457842379e-05
  41    -0.00042993676532681
  42    0.0001389465554929
  43    1.7884070207345e-05
  44    -1.1188692252967e-05
  45    -1.5968492410375e-06
  46    1.7446747864288e-05
  47    1.2366668146153e-05
  48       1.0010260453001
  49    0.00078780067328824
  50    -0.0057943703381584
  51    -0.00069429854259989
  52    -0.0019503952362832
  53    0.0011794678627441
  54    0.00027663805271532
  55    0.00054864136275782
  56    -0.00025665436299594
  57    1.0185813122611e-05
  58    4.4572936373278e-05
  59    8.181927482749e-05
  60    7.4015169836108e-05
  61    -6.2578879023326e-05
  62    -7.1723178917909e-05
  63    -0.00014381208674131
  64    0.00042988618664885
  65    -2.8031791815391e-05
  66    3.1476330094761e-05
  67    -1.0312203027514e-05
  68    6.0943627927954e-05
  69    -0.00011086661438586
  70    8.7722605355155e-06
  71    7.4069050095356e-06
  72    -4.0491192076927e-07
  73    9.7919695158567e-06
  74    -1.1136640231349e-05
  75    6.3770629858887e-07
  76    7.1919907348304e-05
  77    -0.00012772606350269
  78    4.2967743661317e-05
  79    4.504096703572e-05
  80    -3.1385696702471e-05
  81    -2.4954817902948e-05
  82    -4.2975611567325e-05
  83    0.00022802946515353
  84    1.0601324460868e-05
  85    3.2740021576025e-06
  86    1.3986225411703e-05
  87    6.0699870964179e-05
  88    0.00010474896875409
  89    -3.8065277338739e-05
  90    -7.753607501076e-06
  91    3.9403680469018e-06
  92    -6.0846579133263e-06
  93    -1.6761769286613e-05
  94    2.3025651764318e-06
 Sym= A
 Ene=               3
 Spin= Alpha
 Occup=    1.00000
   1    -0.00020332519177543
   2    0.00026382748249992
   3    0.0038589406179649
   4    -0.00040225410390755
   5    -0.00082357101288619
   6    -0.00051197440747987
   7    0.00032374879548116
   8    -0.0011775654882516
   9    -0.0012073078767745
  10    -3.1694162520499e-05
  11    3.8084281253626e-05
  12    8.3334867828344e-05
  13    -5.3451158514461e-05
  14    6.1498954855079e-05
  15    7.7131158527383e-05
  16    9.6726673350727e-05
  17    -0.0017725006890969
  18    0.0001170539014051
  19    9.5734612295965e-06
  20    -1.3261224031985e-05
  21    0.00079521413518255
  22    0.00033161465662269
  23    0.00056698858176136
  24    -2.8123704814492e-06
  25    -3.2162240590412e-05
  26    5.3945307951429e-05
  27    -4.8864718936763e-05
  28    -2.1668535696083e-05
  29    7.1923366701319e-05
  30    -0.00012771360079772
  31    -4.2966788145106e-05
  32    -4.5040980855958e-05
  33    -3.1384773820396e-05
  34    -7.1722465928902e-05
  35    -0.00014380921532583
  36    0.00042988292021786
  37    2.8020747764854e-05
  38    -3.1482179617891e-05
  39    -1.0313976434104e-05
  40    -6.0948103592145e-05
  41    0.00011086566060042
  42    8.7733249977082e-06
  43    7.4069950113482e-06
  44    4.0470741692901e-07
  45    -9.791704066662e-06
  46    -1.1136870283495e-05
  47    6.3714963752528e-07
  48    -2.4954852809138e-05
  49    -4.2974948741324e-05
  50    0.00022803165357571
  51    -1.0600959356312e-05
  52    -3.2748355367749e-06
  53    1.398671662624e-05
  54    -6.0701295511352e-05
  55    -0.0001047489616199
  56    -3.8063099062091e-05
  57    -7.7535256144871e-06
  58    -3.9399917681078e-06
  59    6.0847832345439e-06
  60    -1.6762005555434e-05
  61    2.3022800118087e-06
  62    0.00010564489996654
  63    0.00017747242516329
  64    -0.00075649153078621
  65    -1.2879200762467e-06
  66    3.747131144728e-05
  67    -4.2381890064665e-05
  68    -5.1659624256668e-05
  69    0.00042994266267129
  70    0.00013893722015283
  71    1.7882432215157e-05
  72    1.1187772451106e-05
  73    1.5967774109337e-06
  74    1.7444500261872e-05
  75    1.2366518950757e-05
  76    -0.00024905012916085
  77    -3.1588264926306e-05
  78    3.0005805638259e-07
  79    0.00012865724401282
  80    0.00010253992092238
  81       1.0010260451855
  82    0.0007870825554674
  83    -0.0057952164507339
  84    0.00069452476130826
  85    0.0019508682059318
  86    0.0011796026013906
  87    -0.00027648499898543
  88    -0.00054832389768019
  89    -0.00025656906048413
  90    1.0181775947874e-05
  91    -4.4569260227232e-05
  92    -8.1810608094296e-05
  93    7.4007928394581e-05
  94    -6.257112011171e-05
 Sym= A
 Ene=               4
 Spin= Alpha
 Occup=    1.00000
   1    7.7126902546019e-05
   2    9.6718141244082e-05
   3    -0.0017724767272839
   4    -0.00011706090079826
   5    9.6053126109839e-06
   6    -1.32370773553e-05
   7    -0.00079521010763605
   8    0.0003316239652576
   9    0.00056702187889184
  10    -2.8101303897138e-06
  11    3.2177424733028e-05
  12    5.3947244561063e-05
  13    -4.8870186328748e-05
  14    2.1687264348588e-05
  15    -0.00020337244814769
  16    0.00026349938891543
  17    0.0038588853772099
  18    0.00040211670504129
  19    -0.00082321003403232
  20    -0.00051176098858162
  21    -0.00032376822538626
  22    -0.0011775149043807
  23    -0.0012073527138564
  24    -3.1677604902343e-05
  25    -3.8080470359662e-05
  26    8.3327051113493e-05
  27    -5.3438492061977e-05
  28    -6.1484147426387e-05
  29    -0.00024903422129508
  30    -3.1479161593682e-05
  31    -3.0744674934186e-07
  32    0.00012866779319067
  33    0.00010254814025021
  34       1.0010260449062
  35    0.00078894151203596
  36    -0.0057930182825194
  37    -0.00069415391850781
  38    0.0019499337658396
  39    0.0011786566769699
  40    0.00027673307245018
  41    -0.00054894438595296
  42    -0.00025720193843054
  43    1.0180835710146e-05
  44    4.4581231783439e-05
  45    -8.1839967766415e-05
  46    7.4022876284563e-05
  47    6.2585316360267e-05
  48    0.00010564963390655
  49    0.00017747015932798
  50    -0.00075652698286661
  51    1.2683181792731e-06
  52    3.7514307549109e-05
  53    -4.2349149764813e-05
  54    5.1653326016497e-05
  55    0.00042997034637393
  56    0.00013895559557704
  57    1.7887585431703e-05
  58    -1.1190351421803e-05
  59    1.5979911827286e-06
  60    1.7450540212221e-05
  61    -1.2367135891407e-05
  62    -2.495471695064e-05
  63    -4.2975641538319e-05
  64    0.00022802712413806
  65    1.0601780984333e-05
  66    -3.2709754957387e-06
  67    1.3986314788374e-05
  68    6.0695363978712e-05
  69    -0.00010474825162418
  70    -3.8067107189381e-05
  71    -7.7533824029222e-06
  72    3.9407075616294e-06
  73    6.0844281447539e-06
  74    -1.6761620261655e-05
  75    -2.3024918727002e-06
  76    7.192538950687e-05
  77    -0.00012773502140932
  78    4.2970285536457e-05
  79    -4.504023307956e-05
  80    -3.1388369022163e-05
  81    -7.1725392348559e-05
  82    -0.0001438191595564
  83    0.00042989050408558
  84    -2.8054263443769e-05
  85    -3.1470100027908e-05
  86    -1.0304321840385e-05
  87    6.0937194493869e-05
  88    0.00011086747529189
  89    8.7706538076538e-06
  90    7.4066677840492e-06
  91    -4.0607850097484e-07
  92    -9.7924222432286e-06
  93    -1.1135655736628e-05
  94    -6.3879625240478e-07
 Sym= A
 Ene=               5
 Spin= Alpha
 Occup=    1.00000
   1    -0.00020336795118282
   2    0.00026353428260495
   3    0.0038588944662055
   4    -0.00040213100406613
   5    0.00082324869404585
   6    -0.00051178426073817
   7    0.00032377092191726
   8    0.0011775165345511
   9    -0.0012073500473569
  10    -3.1675812512317e-05
  11    3.8079997026709e-05
  12    -8.333090642595e-05
  13    -5.3440640981262e-05
  14    -6.1482866305618e-05
  15    7.7127174908985e-05
  16    9.6716176128121e-05
  17    -0.0017724876038616
  18    0.00011706535952054
  19    -9.6021129360714e-06
  20    -1.3238745621102e-05
  21    0.00079521536961229
  22    -0.00033162124642121
  23    0.0005670176985012
  24    -2.8103316229508e-06
  25    -3.2176070960036e-05
  26    -5.3947117058323e-05
  27    -4.8869674128391e-05
  28    2.1685447287875e-05
  29    7.1926584338582e-05
  30    -0.0001277309870919
  31    -4.2969882072138e-05
  32    4.5040169449127e-05
  33    -3.1388158319176e-05
  34    -2.4954889250456e-05
  35    -4.297537898245e-05
  36    0.00022802814166289
  37    -1.060185611998e-05
  38    3.271487722746e-06
  39    1.3986911799427e-05
  40    -6.0696225005393e-05
  41    0.00010474843105406
  42    -3.8066001389574e-05
  43    -7.7533385591373e-06
  44    -3.9405822463825e-06
  45    -6.0844421369686e-06
  46    -1.6761713821186e-05
  47    -2.3023765938008e-06
  48    -7.1725239261977e-05
  49    -0.00014381872789089
  50    0.00042988906154663
  51    2.8051816808841e-05
  52    3.1471353662634e-05
  53    -1.0305054721211e-05
  54    -6.0938405083048e-05
  55    -0.00011086714063388
  56    8.770660473504e-06
  57    7.4066372292324e-06
  58    4.060570603677e-07
  59    9.792370954264e-06
  60    -1.1135609188542e-05
  61    -6.3872072997959e-07
  62       1.0010260447504
  63    0.00078875588779225
  64    -0.0057932370683028
  65    0.00069425247934683
  66    -0.0019500445616775
  67     0.001178695559488
  68    -0.00027666589842263
  69    0.0005488702974951
  70    -0.00025717714595153
  71    1.0179812151467e-05
  72    -4.4579751744939e-05
  73    8.1837707928313e-05
  74    7.4021442593805e-05
  75    6.2582643964053e-05
  76    -0.0002490288086556
  77    -3.1483782641769e-05
  78    3.0644524721906e-07
  79    -0.00012866621377355
  80    0.00010254719361949
  81    0.00010564942695827
  82    0.00017746945183517
  83    -0.00075652640303917
  84    -1.2712860836563e-06
  85    -3.7512866130267e-05
  86    -4.2353006498125e-05
  87    -5.1655138898134e-05
  88    -0.00042996979911716
  89    0.00013895308443399
  90    1.7887128650519e-05
  91    1.1190051658538e-05
  92    -1.5979636781235e-06
  93    1.7449896491777e-05
  94    -1.2367064159601e-05
 Sym= A
 Ene=               6
 Spin= Alpha
 Occup=    1.00000
   1    0.0015585158324213
   2     0.027759858432637
   3     0.075419061993766
   4     0.048569717228711
   5    -0.0023278054641604
   6    -0.0056847169220666
   7      0.04458201791882
   8      0.01465658684247
   9    0.0074973896943673
  10    -0.00037505483480749
  11    -0.0021227076331257
  12    -0.00032217735372488
  13    0.0010900762212733
  14    -0.0016205118458328
  15    0.0025671973602985
  16    0.00037995677935333
  17    -0.027263093611751
  18     0.002005464464984
  19    0.0021401497170204
  20    0.0025541365891106
  21     0.042307242328519
  22    -0.021790883461504
  23     0.008936545781963
  24    -0.023677026250581
  25    -0.010956560839821
  26    -0.017481642037737
  27     0.011848442347876
  28    -0.027332080075672
  29    -0.051312202334759
  30    -0.048884974240791
  31    -0.0019781221567553
  32    0.0032890392718462
  33    0.00049066706796486
  34    0.00094952423694727
  35    0.0047840702686971
  36    -0.0054801973473975
  37       0.5528742676592
  38    -0.022180991635177
  39      0.37824475808566
  40      0.38206352264908
  41    -0.018127275049644
  42      0.25982594214263
  43    0.0069979441364877
  44    0.0033186038432834
  45    0.0060716958428118
  46    -0.003266693152156
  47    0.0098698710158753
  48    -0.00082667108216831
  49    -0.00019721116174294
  50     0.010730314590942
  51    -0.0043364139775287
  52    -0.0017798032831075
  53    -0.0016981912158606
  54    -0.0070188514394319
  55    -0.0015373102084213
  56    0.0014247284581712
  57      -0.0005066071932
  58    -0.00028919731293129
  59    -0.00035978015211426
  60    0.00028261480393673
  61    -0.00032496621094977
  62    -0.00021608067643713
  63    -0.0027575448049799
  64    -0.0071186630706924
  65    -0.0075588255155343
  66    0.0029593507748141
  67    -0.0028933944276228
  68    -0.007718723301089
  69    0.0023599371476571
  70    -0.0047978516878893
  71    -0.00040440337874097
  72    0.00039629753631847
  73    0.00022833195690572
  74    0.00046812239370032
  75    -0.00066272065947139
  76    -0.010875210449489
  77    -0.015210329463213
  78    0.00092443901041526
  79    -0.001208528054199
  80    0.0012466160258907
  81    0.00082088925846669
  82    0.0064562581537804
  83    0.0075314181572009
  84     0.012182294237023
  85    0.00018383451868568
  86    -0.0023179393799749
  87    0.0014144326047713
  88    0.0020778124092591
  89    0.0016827562624576
  90    0.00054814048017515
  91    0.00098765485117393
  92    0.00027416802863996
  93    -0.0015260440555082
  94    0.0010384115009848
 Sym= A
 Ene=               7
 Spin= Alpha
 Occup=    1.00000
   1     0.001558513225541
   2     0.027759476519143
   3     0.075418326078408
   4     0.048568933739311
   5    0.0023279261600718
   6    -0.0056848221085208
   7     0.044581468458111
   8    -0.014656456551204
   9    0.0074969928926957
  10    -0.00037507368165047
  11    -0.0021228113136814
  12    0.00032222035721863
  13    0.0010900894370851
  14    0.0016206647507545
  15    0.0025675323540612
  16    0.00038226494862394
  17    -0.027262965878426
  18     0.002006557542789
  19    -0.0021364902216424
  20    0.0025523685523954
  21     0.042307051963367
  22     0.021791972934919
  23    0.0089373603058475
  24    -0.023677562842749
  25    -0.010956324891241
  26     0.017481739727894
  27     0.011847703255982
  28     0.027331980375223
  29    -0.051312944659836
  30    -0.048886193871403
  31    -0.0019780521578298
  32    -0.0032889639453309
  33    0.00049060369733871
  34    -0.00082673890220995
  35    -0.00019688046348968
  36     0.010731619761483
  37    -0.004336660515388
  38     0.001780727340108
  39    -0.001697721186718
  40    -0.0070191256434472
  41    0.0015381259561738
  42    0.0014251335574473
  43    -0.00050665111862118
  44    -0.00028917061419659
  45    0.00035980547735884
  46    0.00028256830459928
  47    0.00032494911721791
  48    0.00094904182364194
  49    0.0047699281531625
  50    -0.0054969105785846
  51      0.55286418047187
  52     0.022180270397653
  53      0.37825979882888
  54      0.38205660616207
  55     0.018126958422617
  56      0.25983618188531
  57    0.0069980901807946
  58     0.003318360780229
  59    -0.0060719929923915
  60    -0.0032666488963189
  61    -0.0098696762707379
  62    0.00082088981859177
  63    0.0064562900305113
  64    0.0075312718957369
  65     0.012182227445943
  66    -0.00018369395203441
  67    -0.0023181304592878
  68    0.0014143659056662
  69    -0.0020776908447543
  70    0.0016827160373844
  71    0.00054813608891577
  72    0.00098766067215697
  73    -0.00027416746763557
  74    -0.0015260347589063
  75    -0.0010383978791602
  76    -0.010875061475968
  77    -0.015210005533036
  78    0.00092436185468792
  79    0.0012085201619691
  80     0.001246636860973
  81    -0.0002160926361825
  82    -0.0027574831292249
  83    -0.007118499491476
  84    -0.007558611100298
  85    -0.002959156319826
  86    -0.0028932212106177
  87    -0.007718388768064
  88    -0.0023598412997968
  89    -0.0047976747453246
  90    -0.00040440102876137
  91    0.00039629091885797
  92    -0.00022832474284806
  93    0.00046811428134187
  94    0.00066271483326325
 Sym= A
 Ene=               8
 Spin= Alpha
 Occup=    1.00000
   1    -0.0025678050400788
   2    -0.00038406353817952
   3      0.02726286926901
   4    0.0020072130177455
   5    -0.0021331200564569
   6    -0.0025511545734268
   7     0.042306620482637
   8     0.021793440723974
   9    -0.0089384230007463
  10     0.023678302959577
  11    -0.010955926255968
  12     0.017482059573691
  13    -0.011846736794633
  14    -0.027331719014499
  15    -0.0015584962361626
  16    -0.027758945014151
  17    -0.075417410526678
  18     0.048568080480518
  19    0.0023281236888571
  20    0.0056849744869048
  21     0.044580778644055
  22    -0.014656317051439
  23    -0.0074965582301169
  24    0.00037509607693152
  25    -0.0021228778334863
  26    0.00032223449476506
  27    -0.001090095133328
  28    -0.0016207888886483
  29     0.010875000985312
  30     0.015209726151833
  31    0.00092426554138536
  32    0.0012085136976567