[Molden Format]
made by pyscf v[2.0.1]
[Atoms] (AU)
C   1   6     0.00000000000000     0.00000000000000     0.00000000000000
C   2   6     2.85272299873892     0.00000000000000     0.00000000000000
H   3   1     3.62066923017674     0.00000000000000     1.90331545357504
F   4   9     3.65943188126013    -2.04308229183900    -1.24074875274501
F   5   9     3.65943188126013     2.04308229183900    -1.24074875274501
F   6   9    -0.80670888252121     1.49550828705447    -1.86469774548472
H   7   1    -0.76794623143782     0.65097222422570     1.78853148675225
F   8   9    -0.80670888252121    -2.34423041954446    -0.46714714892290
[GTO]
1 0
 s    8 1.00
                  6665  0.00069158396281299
                  1000  0.0053257961529341
                   228   0.027060721042034
                 64.71    0.10165684614077
                 21.06     0.2745748236174
                 7.495    0.44829431892377
                 2.797    0.28490261071525
                0.5215   0.015194859206082
 s    8 1.00
                  6665  -0.00029326965268655
                  1000  -0.0023180354739745
                   228  -0.011499786038565
                 64.71  -0.046826727009787
                 21.06   -0.12846616875047
                 7.495   -0.30126627246289
                 2.797   -0.25563070233011
                0.5215      1.093793361012
 s    1 1.00
                0.1596                   1
 p    3 1.00
                 9.439   0.056979251590039
                 2.002    0.31320721150073
                0.5456    0.76037674173753
 p    1 1.00
                0.1517                   1
 d    1 1.00
                  0.55                   1

2 0
 s    8 1.00
                  6665  0.00069158396281299
                  1000  0.0053257961529341
                   228   0.027060721042034
                 64.71    0.10165684614077
                 21.06     0.2745748236174
                 7.495    0.44829431892377
                 2.797    0.28490261071525
                0.5215   0.015194859206082
 s    8 1.00
                  6665  -0.00029326965268655
                  1000  -0.0023180354739745
                   228  -0.011499786038565
                 64.71  -0.046826727009787
                 21.06   -0.12846616875047
                 7.495   -0.30126627246289
                 2.797   -0.25563070233011
                0.5215      1.093793361012
 s    1 1.00
                0.1596                   1
 p    3 1.00
                 9.439   0.056979251590039
                 2.002    0.31320721150073
                0.5456    0.76037674173753
 p    1 1.00
                0.1517                   1
 d    1 1.00
                  0.55                   1

3 0
 s    3 1.00
                 13.01   0.033498726389998
                 1.962    0.23480080117413
                0.4446     0.8136829578829
 s    1 1.00
                 0.122                   1
 p    1 1.00
                 0.727                   1

4 0
 s    8 1.00
                 14710  0.00072067370873197
                  2207  0.0055504869689163
                 502.8   0.028254207662589
                 142.6    0.10639582836653
                 46.47    0.28668420124307
                  16.7    0.44843796582416
                 6.356    0.26464118141135
                 1.316   0.015326060993048
 s    8 1.00
                 14710  -0.00032119389049893
                  2207  -0.0025461915683188
                 502.8  -0.012643359507821
                 142.6   -0.05195749170489
                 46.47   -0.14344713812646
                  16.7   -0.33243762329603
                 6.356   -0.21865906750347
                 1.316     1.0955904138622
 s    1 1.00
                0.3897                   1
 p    3 1.00
                 22.67   0.064834021493887
                 4.977    0.34053535983101
                 1.347    0.73464640679382
 p    1 1.00
                0.3471                   1
 d    1 1.00
                  1.64                   1

5 0
 s    8 1.00
                 14710  0.00072067370873197
                  2207  0.0055504869689163
                 502.8   0.028254207662589
                 142.6    0.10639582836653
                 46.47    0.28668420124307
                  16.7    0.44843796582416
                 6.356    0.26464118141135
                 1.316   0.015326060993048
 s    8 1.00
                 14710  -0.00032119389049893
                  2207  -0.0025461915683188
                 502.8  -0.012643359507821
                 142.6   -0.05195749170489
                 46.47   -0.14344713812646
                  16.7   -0.33243762329603
                 6.356   -0.21865906750347
                 1.316     1.0955904138622
 s    1 1.00
                0.3897                   1
 p    3 1.00
                 22.67   0.064834021493887
                 4.977    0.34053535983101
                 1.347    0.73464640679382
 p    1 1.00
                0.3471                   1
 d    1 1.00
                  1.64                   1

6 0
 s    8 1.00
                 14710  0.00072067370873197
                  2207  0.0055504869689163
                 502.8   0.028254207662589
                 142.6    0.10639582836653
                 46.47    0.28668420124307
                  16.7    0.44843796582416
                 6.356    0.26464118141135
                 1.316   0.015326060993048
 s    8 1.00
                 14710  -0.00032119389049893
                  2207  -0.0025461915683188
                 502.8  -0.012643359507821
                 142.6   -0.05195749170489
                 46.47   -0.14344713812646
                  16.7   -0.33243762329603
                 6.356   -0.21865906750347
                 1.316     1.0955904138622
 s    1 1.00
                0.3897                   1
 p    3 1.00
                 22.67   0.064834021493887
                 4.977    0.34053535983101
                 1.347    0.73464640679382
 p    1 1.00
                0.3471                   1
 d    1 1.00
                  1.64                   1

7 0
 s    3 1.00
                 13.01   0.033498726389998
                 1.962    0.23480080117413
                0.4446     0.8136829578829
 s    1 1.00
                 0.122                   1
 p    1 1.00
                 0.727                   1

8 0
 s    8 1.00
                 14710  0.00072067370873197
                  2207  0.0055504869689163
                 502.8   0.028254207662589
                 142.6    0.10639582836653
                 46.47    0.28668420124307
                  16.7    0.44843796582416
                 6.356    0.26464118141135
                 1.316   0.015326060993048
 s    8 1.00
                 14710  -0.00032119389049893
                  2207  -0.0025461915683188
                 502.8  -0.012643359507821
                 142.6   -0.05195749170489
                 46.47   -0.14344713812646
                  16.7   -0.33243762329603
                 6.356   -0.21865906750347
                 1.316     1.0955904138622
 s    1 1.00
                0.3897                   1
 p    3 1.00
                 22.67   0.064834021493887
                 4.977    0.34053535983101
                 1.347    0.73464640679382
 p    1 1.00
                0.3471                   1
 d    1 1.00
                  1.64                   1

[5d]
[7f]
[9g]

[MO]
 Sym= A
 Ene=               0
 Spin= Alpha
 Occup=    1.00000
   1    -0.00024205894915651
   2    1.6882181462776e-06
   3    0.0033588276181157
   4    0.00048719918318663
   5    -3.4598542395824e-06
   6    1.5906111687106e-06
   7    0.0014299367264908
   8    -8.8742474749798e-06
   9    -5.956178671028e-05
  10    -3.4806033333353e-05
  11    0.00013576388862974
  12    -1.9924483412483e-05
  13    5.1532660689037e-05
  14    7.6564240290547e-06
  15       1.0019082322975
  16    0.0042219220580718
  17    -0.007309618629379
  18    0.00056264116073574
  19    2.2915396173851e-05
  20    -0.00098638854710915
  21    0.0015144300678889
  22    1.5648553868299e-05
  23    -0.00050576441129029
  24    -5.7938734131356e-05
  25    -9.7248300936292e-05
  26    -5.7620337211434e-06
  27    -0.00030937325095122
  28     6.65179240191e-06
  29    0.00086465308739751
  30    0.0015039203443348
  31    -0.00020446405673525
  32    -4.871497880479e-06
  33    -2.3460610992618e-05
  34    0.00013713061295708
  35    0.00063908694906709
  36    -2.9507365250045e-05
  37    -8.2102211725078e-05
  38    0.00030399658087331
  39    0.00015143809269478
  40    0.00014840852585228
  41    -0.00071756564915446
  42    -0.00041638892519373
  43    3.8259782806221e-05
  44    2.7222635995704e-05
  45    -0.00010886496551836
  46    7.8128543709446e-05
  47    6.7393577570059e-05
  48    0.00014360555523319
  49    0.00065211199205236
  50    -6.7977559278133e-05
  51    -8.1352722719348e-05
  52    -0.00030333769572027
  53    0.00015096304111154
  54    0.00015379457070261
  55    0.00073610214791471
  56    -0.0004258490102791
  57    3.8949998677249e-05
  58    2.8187288201523e-05
  59    0.00011245173746676
  60    8.1128363614063e-05
  61    -6.960157993539e-05
  62    -3.2421540216169e-06
  63    9.6941015198038e-06
  64    -0.00017431946176014
  65    2.3054699533604e-05
  66    -1.3015451627779e-05
  67    1.1964152221935e-05
  68    9.2064818751626e-05
  69    7.2236074277911e-05
  70    -7.1638050396101e-05
  71    -1.5220818306937e-05
  72    1.5272040646188e-05
  73    1.4227528417397e-06
  74    3.4519746155447e-05
  75    -1.0135610677924e-05
  76    -8.0570327175092e-05
  77    0.00011234978750952
  78    5.9851837601274e-05
  79    -2.1814341922047e-05
  80    -6.356752210958e-05
  81    -1.4989834667259e-05
  82    -1.4331257059714e-05
  83    -0.00010591262264847
  84    1.0945313531099e-05
  85    1.6924400947026e-05
  86    -1.9777435690996e-06
  87    0.00010688921736664
  88    -8.0861834410311e-05
  89    2.1676840797294e-06
  90    -2.0602195306208e-05
  91     4.66236529315e-06
  92    7.1605323567703e-06
  93    2.8542092851929e-05
  94    1.7308090031205e-05
 Sym= A
 Ene=               1
 Spin= Alpha
 Occup=    1.00000
   1        1.001908232847
   2    0.0042219244806053
   3    -0.0073096318406059
   4    -0.00056265087113206
   5    -0.0003589199116693
   6    -0.00091909026395505
   7    -0.0015144344112614
   8    -0.00018769006886891
   9    -0.00046991587915183
  10    -1.9640043904859e-05
  11    8.9110484351408e-05
  12    -0.00012726948287948
  13    -0.00028726391327998
  14    3.9513280270832e-05
  15    -0.00024205871848582
  16    1.6841640499663e-06
  17    0.0033588294287837
  18    -0.00048719257103076
  19     3.79145085356e-06
  20    3.096913948421e-07
  21    -0.0014299371876818
  22    -1.2033548428271e-05
  23    -5.9006369891661e-05
  24    -4.5010328400084e-05
  25    -0.00013019375649303
  26    1.2450078560099e-05
  27    4.5640674522117e-05
  28    -3.9238488660193e-05
  29    -8.0570008326214e-05
  30    0.00011235206597566
  31    -5.9851563522852e-05
  32    -1.2426514944844e-06
  33    -6.7194571174774e-05
  34    -3.242096772174e-06
  35    9.6952270881414e-06
  36    -0.00017431954375835
  37    -2.3060251123942e-05
  38    1.6323034562386e-05
  39    6.7919777170694e-06
  40    -9.2068628547269e-05
  41    -9.2381164867284e-05
  42    -4.261090551838e-05
  43    -1.525512959412e-05
  44    -1.0884502551057e-05
  45    1.5316661484467e-06
  46    3.4499937821444e-05
  47    -1.4747782363459e-05
  48    -1.4989914644045e-05
  49    -1.4331563264537e-05
  50    -0.00010591250302768
  51    -1.0944075148744e-05
  52    -1.6580185106237e-05
  53    3.9278825697212e-06
  54    -0.00010688888877034
  55    7.6726814284255e-05
  56    -2.5620458541926e-05
  57    -1.5892628481114e-05
  58    -1.0300786611534e-05
  59    -7.7805945061308e-06
  60    3.1261116333665e-05
  61    1.4669555478276e-05
  62    0.00013713034238715
  63    0.00063909249043164
  64    -2.9499726669753e-05
  65    8.2100676282891e-05
  66    -0.0002338832453329
  67    0.00024628260203809
  68    -0.00014840898580759
  69    0.00053186850462164
  70    -0.00063669574199407
  71    -3.6970601207169e-05
  72    -4.8630885327924e-05
  73    0.00012980288050398
  74    3.4693931128629e-05
  75    5.4018301593457e-05
  76    0.00086463303348409
  77    0.0015039135288486
  78    0.00020446294934475
  79    -3.4462745266205e-06
  80    -2.3711075979257e-05
  81    0.00014360527798298
  82    0.00065212826262498
  83    -6.7961725843673e-05
  84    8.1361939791155e-05
  85    0.00033670732085782
  86    3.8116563665332e-05
  87    -0.00015378835834752
  88    -0.00083733929119313
  89    -0.00014840103746128
  90    8.649458235534e-05
  91    -2.6821645693217e-06
  92    -3.8386395650346e-05
  93    0.00010857768239577
  94    -7.504392992315e-05
 Sym= A
 Ene=               2
 Spin= Alpha
 Occup=    1.00000
   1    6.3946269251257e-05
   2    7.3926814842277e-05
   3    -0.001643544526164
   4    -0.00011738718416526
   5    -3.7045064687584e-06
   6    -1.6770753215925e-05
   7    -0.00081141975607931
   8    -0.00023229598735135
   9    0.00054502121166274
  10    7.8765774772407e-06
  11    4.0161925712765e-05
  12    -5.7069989076435e-05
  13    -5.6527285326097e-05
  14    -8.1183371217891e-06
  15    -0.00019814832066878
  16    0.00027294907305168
  17    0.0038064926875895
  18    0.0004006091354554
  19    0.00082073103203359
  20    -0.000512143189327
  21    -0.00031503206331525
  22    0.0011873648749751
  23    -0.0011945136789238
  24    -3.4583068218569e-05
  25    -3.5597946607135e-05
  26    -8.984394849657e-05
  27    -5.237496622557e-05
  28    7.3819479086939e-05
  29    -0.00024717982009032
  30    -1.9957621155712e-05
  31    -3.717869957114e-06
  32    -0.00013143175345066
  33    0.00010030201160227
  34    0.00010065155551932
  35    0.00016827264040908
  36    -0.00072251573607204
  37    4.8280264897062e-07
  38    -3.763460600395e-05
  39    -4.118804577826e-05
  40    4.7644919681309e-05
  41    -0.00041822521382462
  42    0.00014114177443155
  43    1.7703341267119e-05
  44    -1.1060974416045e-05
  45    -6.7458098458859e-07
  46    1.6221906088957e-05
  47    1.1892194866657e-05
  48       1.0010263358007
  49    0.00078458641910481
  50    -0.0058013966950385
  51    -0.00069905629199608
  52    -0.0019469604585825
  53     0.001189718134203
  54    0.00027916619850475
  55    0.00054413389419626
  56    -0.00026191395805824
  57    1.0379869572631e-05
  58    4.5591252102943e-05
  59    8.3020982859437e-05
  60    7.3460809588245e-05
  61    -6.1755747357296e-05
  62    -5.2781477321874e-05
  63    -0.00010688167363887
  64    0.00034699464837673
  65    -1.7217084509363e-05
  66    1.0480281437392e-05
  67    -3.00037078594e-05
  68    1.6536348909541e-05
  69    -5.1000991096763e-05
  70    6.4940255072785e-05
  71    1.9993017678344e-06
  72    -2.1992435771862e-06
  73    8.7120610280217e-06
  74    -1.8066552912489e-05
  75    7.6295915686416e-07
  76    8.8484630219458e-05
  77    -0.00018347648324953
  78    1.9659631394645e-05
  79    2.6288665752034e-05
  80    -3.7409280921297e-05
  81    -2.7940698447076e-05
  82    -4.953759855728e-05
  83    0.00018971466157629
  84    -5.5106010505105e-06
  85    5.5561579308861e-06
  86    1.3071167348547e-05
  87    0.00012162566832211
  88    7.2399463899238e-05
  89    -7.3321722332854e-05
  90    -2.3985877290183e-06
  91    6.6353533442413e-07
  92    -1.5802313029342e-05
  93    -7.5195081080994e-06
  94    2.5184476551553e-06
 Sym= A
 Ene=               3
 Spin= Alpha
 Occup=    1.00000
   1    -0.00019815286208328
   2    0.00027290730768651
   3    0.0038064629831834
   4    -0.00040056931369256
   5    -0.00094633843199358
   6    -0.0002005195525419
   7    0.00031502993389868
   8    -0.0015243506458158
   9    -0.00071632036841593
  10    -7.3226107204475e-05
  11    8.1951646766694e-06
  12    3.268296897757e-05
  13    -7.4687768210626e-05
  14    8.152957344829e-05
  15    6.3944049916911e-05
  16    7.3919848213784e-05
  17    -0.0016435228777781
  18    0.00011737346755966
  19    -2.2704031917398e-06
  20    -1.7043410740373e-05
  21    0.00081140129225993
  22    0.00040468958052876
  23    0.00043268580172769
  24    -1.954946270517e-05
  25    -3.4965121125205e-05
  26    2.9938132618951e-05
  27    -7.2361960204836e-05
  28    -2.1368031006809e-05
  29    8.8463679991839e-05
  30    -0.00018347793183348
  31    -1.9657908007307e-05
  32    -3.7498628474919e-05
  33    -2.6161030456742e-05
  34    -5.2780374388722e-05
  35    -0.00010687407613655
  36    0.00034698803080367
  37    1.7193892648451e-05
  38    -2.0101745719983e-05
  39    -2.4608652794783e-05
  40    -1.6547604795441e-05
  41    7.0136316244797e-05
  42    4.3583192810321e-05
  43    8.3284713854014e-06
  44    1.8046160534112e-06
  45    -1.1367501683732e-05
  46    -1.4412529915044e-05
  47    1.4687668167467e-06
  48    -2.7941232203157e-05
  49    -4.9542168191985e-05
  50    0.00018971646002425
  51    5.531573582394e-06
  52    -7.5323326990528e-07
  53    1.4174490409906e-05
  54    -0.00012161422586037
  55    -9.3114043753272e-05
  56    -4.4140913869048e-05
  57    -1.0013024016776e-05
  58    -1.4845381589367e-06
  59    8.3536558946043e-06
  60    -1.1915707473999e-05
  61    2.1396593582856e-06
  62    0.00010064866572565
  63    0.00016831153445431
  64    -0.0007224329320933
  65    -5.0514246909705e-07
  66    2.110944437377e-05
  67    -5.1557756451602e-05
  68    -4.7658625451047e-05
  69    0.00044115026222834
  70    -1.0394201585885e-05
  71    1.2577714671786e-05
  72    6.326119155673e-06
  73    1.5582568953166e-05
  74    1.3262161316396e-05
  75    1.4956804844176e-05
  76    -0.00024722332650643
  77    -1.9992252049648e-05
  78    3.7205807570717e-06
  79    0.00015781676823154
  80    4.9299175805843e-05
  81       1.0010263368155
  82    0.00078471473306917
  83    -0.0058012443501959
  84    0.00069912891660471
  85    0.0022360516304738
  86    0.00045287611005752
  87    -0.00027911378017046
  88    -0.00060116949347649
  89    -5.9454829047411e-05
  90    4.7341375735589e-05
  91    -2.1713113211378e-05
  92    -3.4196021677767e-05
  93    9.4804862114408e-05
  94    -7.362637758607e-05
 Sym= A
 Ene=               4
 Spin= Alpha
 Occup=    1.00000
   1    6.4188030382653e-05
   2    7.9305889712639e-05
   3    -0.0015571733967584
   4    -0.00013426705252169
   5    1.2516241605597e-05
   6    -1.2710528190887e-05
   7    -0.0006021970757158
   8    0.00035003037032474
   9    0.00044487230145429
  10    -3.3342782445592e-06
  11    1.6226073062227e-05
  12    4.9677644962312e-05
  13    -5.3554458115871e-05
  14    2.4491014882312e-05
  15    -0.0001923902835909
  16    0.00027776907144437
  17    0.0036159819377427
  18    0.00040848929783038
  19    -0.00081990763966549
  20    -0.00050644900858542
  21    -0.00021201682521439
  22    -0.0011713095557257
  23    -0.0011834406641619
  24    -3.2182569470933e-05
  25    -5.1869834970782e-05
  26    8.3059045034665e-05
  27    -5.8082739515426e-05
  28    -5.9751851717926e-05
  29    -0.00022823146931103
  30    -5.1184296847189e-05
  31    -2.8039521745877e-06
  32    0.00012763989424851
  33    9.8079732675183e-05
  34       1.0010232858891
  35    0.00080463722998781
  36    -0.0057460665696694
  37    -0.00069774193975988
  38    0.0019368256463199
  39    0.0011659266764086
  40    0.00026969183661579
  41    -0.00055774652619447
  42    -0.00025317851435317
  43    1.2110155666035e-05
  44    4.2873664669942e-05
  45    -8.2859696767188e-05
  46    7.3043121983631e-05
  47    6.2778014932725e-05
  48    0.00010364989493455
  49    0.00017368837684439
  50    -0.00074189755860489
  51    4.0334275530246e-06
  52    3.719661338234e-05
  53    -4.2129613907596e-05
  54    4.306354162465e-05
  55    0.00042631972542542
  56    0.00013915705985308
  57    1.8553383625639e-05
  58    -1.1345356816312e-05
  59    2.2977538188163e-06
  60    1.7126065110312e-05
  61    -1.1949371735873e-05
  62    -9.1500887657348e-06
  63    -1.3012664869631e-05
  64    0.00018464074963383
  65    3.1141618206737e-05
  66    -1.8154176989567e-06
  67    7.5090305760331e-06
  68    -4.2731039625619e-05
  69    -7.6662866434832e-05
  70    1.933382110129e-05
  71    8.2671199894255e-07
  72    3.7555374472438e-06
  73    -4.2590565920517e-06
  74    -1.8506712871846e-05
  75    4.8574688839612e-06
  76    4.0484343803674e-05
  77    -2.0986489054946e-05
  78    4.2623510446511e-05
  79    -4.1582229508357e-05
  80    -1.4764728247312e-05
  81    -5.2028491889568e-05
  82    -0.0001054207561927
  83    0.00032485506156764
  84    -1.8069842350304e-05
  85    -3.3699884785598e-05
  86    1.6500899506937e-05
  87    1.2874923699482e-05
  88    0.00010416887665488
  89    -6.420405798521e-05
  90    1.252400385697e-05
  91    4.8742112452767e-07
  92    -3.3654622156971e-06
  93    -1.0619200171001e-05
  94    -3.6639456839051e-06
 Sym= A
 Ene=               5
 Spin= Alpha
 Occup=    1.00000
   1    -0.00019238976189205
   2    0.00027778066424092
   3    0.0036159751995966
   4    -0.00040850670712968
   5    0.00059724200669231
   6    -0.00075635371971819
   7    0.00021200904576548
   8    0.00069589486540826
   9    -0.0015126854372725
  10    2.5594849575613e-05
  11    6.9183826183288e-05
  12    -0.00010021127557331
  13    -2.4725432269575e-05
  14    -3.8409603972582e-05
  15    6.4187842754499e-05
  16    7.9305021042459e-05
  17    -0.0015571686941074
  18    0.00013427406625377
  19    -1.6111421780453e-05
  20    -7.655613544192e-06
  21    0.00060219448531847
  22    -0.00017676477853661
  23    0.00053776037183732
  24    3.033077777245e-05
  25    -2.3622457776719e-05
  26    -5.7122857488961e-05
  27    -3.4118208461343e-05
  28    1.7464131159705e-05
  29    4.0493073504951e-05
  30    -2.0980392118749e-05
  31    -4.2624022921947e-05
  32    3.4024557868653e-05
  33    -2.8096668345718e-05
  34    -9.1499559375258e-06
  35    -1.3012299128864e-05
  36    0.00018463962246149
  37    -3.1144101693913e-05
  38    4.2715166176707e-06
  39    6.4360059579914e-06
  40    4.2730170617061e-05
  41    7.8650119549265e-05
  42    -8.0522591861422e-06
  43    1.8574582291661e-07
  44    -5.1904093728635e-06
  45    -2.2250872424392e-06
  46    -1.8876801558021e-05
  47    3.2801663827112e-06
  48    -5.2028082441563e-05
  49    -0.00010542116771504
  50    0.00032485393163196
  51    1.8072641799568e-05
  52    3.731366278253e-05
  53     3.97737549724e-06
  54    -1.2872865619966e-05
  55    -0.00011984525152254
  56    -2.4705889197162e-05
  57    9.5290145101934e-06
  58    7.9525656617887e-07
  59    6.1369141518671e-06
  60    -1.2348768233097e-05
  61    -3.6097982057219e-06
  62       1.0010232852131
  63    0.00080464535601714
  64    -0.0057460579066525
  65    0.00069769879263994
  66    -0.0014214335638254
  67    0.0017579718327917
  68    -0.0002697214283321
  69    0.00043739295944402
  70    -0.00042872301936087
  71    -4.3542470092056e-05
  72    -6.1760675293023e-05
  73    9.3688533886658e-05
  74    4.0910606400105e-05
  75    4.4327337401472e-05
  76    -0.00022822811886712
  77    -5.11798104024e-05
  78    2.8031647608806e-06
  79    -8.6396124757755e-05
  80    0.00013581961520074
  81    0.00010365009484139
  82    0.00017368827626827
  83    -0.00074190620713834
  84    -4.021051000502e-06
  85    -4.9382759875049e-05
  86    -2.6839207421785e-05
  87    -4.3054820696814e-05
  88    -0.0003530319182419
  89    0.00027659485780017
  90    1.4842187704289e-05
  91    1.4748442749035e-05
  92    1.4072389263315e-05
  93    1.4983239643274e-05
  94    -7.3481927411248e-06
 Sym= A
 Ene=               6
 Spin= Alpha
 Occup=    1.00000
   1    -0.0014648741375796
   2    -0.016072348726309
   3    -0.014427341159473
   4     0.015849897133824
   5    -0.021362119434514
   6     0.029315586911687
   7     0.013678298521302
   8    -0.027640916199801
   9     0.041770940050537
  10    -0.0077285284332495
  11    -0.0099868067838384
  12     -0.03226143969261
  13    -0.019501193451867
  14    -0.015345135825463
  15    -0.0022719943568467
  16    -0.017619058523197
  17    -0.015714377518308
  18     0.021497276729261
  19    -0.0015251727493991
  20    -0.0022435209365188
  21    0.0093537296381664
  22    -0.010970442840027
  23    -0.011363147550255
  24    -0.00069745303158763
  25    -0.0016084475979632
  26    -0.00078798811505098
  27    -0.0015020006119139
  28    -0.00016018918615086
  29    -0.002990677227327
  30    0.0072607975796954
  31    0.0019505615297892
  32    0.00053178081550421
  33    -0.00014068615518618
  34    0.00061452497618993
  35    -0.00080294961478385
  36    -0.010222326617457
  37    0.0033868536336347
  38     0.002219400705752
  39    -0.0062409018338308
  40    0.0021854055683053
  41    -0.001860644194763
  42    -0.0036483475320675
  43    -0.0001294089830677
  44    -0.00034911648738957
  45    -0.00036847068827513
  46    0.00035653678130628
  47    0.0007326060190796
  48    -0.00073578293927192
  49    0.0014018806074809
  50    0.0095002960103173
  51    -0.0062696421646041
  52    -0.0050116264370105
  53    0.0045442069373843
  54    -0.0093288104505515
  55    -0.0034601781325927
  56    0.0056694898473916
  57    2.4398104515121e-05
  58    0.00013148106158402
  59    -0.00019327609304332
  60    -0.00020423835362613
  61    -9.5847153906919e-05
  62    -0.001844044155525
  63     0.013685567047927
  64     0.051310860549004
  65    0.0061400959574791
  66    -0.038543717863137
  67     0.026109128227124
  68    0.0064328467537757
  69     -0.03604388358754
  70     0.023678209355111
  71    -5.5444701921127e-06
  72    -0.00041177569046024
  73    -0.0005735403737058
  74    0.00027460799077458
  75    -0.00059576367159669
  76    -0.023166726471125
  77    -0.019713400220648
  78    0.00052403827711052
  79    0.0011757162922519
  80    -0.00067079942306995
  81    -0.0004636973866941
  82    -0.0060810747376544
  83    -0.0046637124350763
  84      0.31777561475257
  85     -0.21986545082124
  86      0.53857805767511
  87      0.22031859451779
  88     -0.14994599795789
  89      0.37205919105595
  90    0.0044945480204395
  91    0.0060913941248047
  92      0.01000417918373
  93    0.0070440026035803
  94    0.0049782367980816
 Sym= A
 Ene=               7
 Spin= Alpha
 Occup=    1.00000
   1    0.0015123661902371
   2     0.028404790409872
   3     0.075710046210187
   4     0.047312349822766
   5    0.0014926859481925
   6    -0.0052709176753999
   7     0.046807893418706
   8    -0.015463856277206
   9     0.001703110313407
  10    0.00027711446564011
  11    -0.0026394507434689
  12    0.00045624056750488
  13    0.0014455106527373
  14    0.0010256730954041
  15    0.0026824409001844
  16    0.00023844744147971
  17    -0.030336096104521
  18    0.0020042671779647
  19    -0.0021907735260275
  20    0.0028879094756389
  21     0.043304841889436
  22      0.02236246933211
  23    0.0083031636203772
  24    -0.023639320761437
  25     -0.01102318750677
  26     0.017665135145778
  27     0.011473566889165
  28     0.027042483212166
  29    -0.050737961090334
  30    -0.048346749450535
  31    -0.0020150356246779
  32    -0.003352889609927
  33    0.00042819695418825
  34    -0.00076468524277108
  35    -4.7341634785761e-05
  36     0.010511628109402
  37    -0.0042503690669928
  38    0.0019545938371176
  39    -0.0013863991601787
  40    -0.0066130084746233
  41    0.0015162401310114
  42    0.0016779632133359
  43    -0.00049684523595505
  44    -0.00025252788778545
  45    0.00035151142592435
  46    0.00031164460216301
  47    0.00032289366361674
  48    0.0010289929413243
  49    0.0057120491092894
  50    -0.004994727320811
  51      0.55052076161395
  52     0.026476939444762
  53      0.38185563359819
  54      0.38065675774498
  55     0.020794233871611
  56      0.26191314150253
  57    0.0071945227722879
  58     0.003371381429325
  59    -0.0060111956001494
  60    -0.0032396332357648
  61    -0.0097459365765838
  62    0.0012918398895483
  63    0.0071281235730571
  64    0.0035032242397829
  65     0.012549906662724
  66    0.0030004999946124
  67    0.00026748518441629
  68    0.0001446664478273
  69    0.0016038947089873
  70    0.0037778646686066
  71    0.0009586529848526
  72    0.00076936824546389
  73    -0.00036544183011158
  74    -0.0012987610566416
  75    -0.0011572913678851
  76    -0.0057571413552037
  77    -0.0074496116578784
  78     0.000811508412912
  79     0.001721808898236
  80    0.00020153676372713
  81    0.00018119966183306
  82    -0.0027290928005099
  83    -0.011151948296243
  84    -0.008668301269706
  85    -0.0056160511811235
  86    -0.001043994585314
  87    -0.0084661770462353
  88    -0.0060581439948146
  89    -0.0022921939068655
  90    -0.00021501244114697
  91    7.174297647187e-05
  92    -0.00019708936836401
  93    0.00062507662033381
  94    0.00075555072627045
 Sym= A
 Ene=               8
 Spin= Alpha
 Occup=    1.00000
   1    0.0021834348944475
   2     0.027974620010499
   3     0.069823598701456
   4     0.049285705895859
   5    -0.0026923008200822
   6    -0.0059518619901144
   7     0.039685416543115
   8     0.019005356944794
   9     0.012854983127621
  10    -0.0011459126809646
  11    -0.0014281226300705
  12    -0.00080739756955963
  13    0.0011296022490386
  14    -0.0014609035941381
  15     0.002361314346212
  16    0.0011162666069839
  17    -0.020002522961639
  18    0.0012340391014495
  19    0.00095271824731396
  20    0.0019277817122574
  21     0.038387616588507
  22    -0.021043389787129
  23    0.0090935177937457
  24     -0.02391316693439
  25    -0.010761298716919
  26    -0.017528924112864
  27     0.011810431834909
  28    -0.027165960775563
  29      -0.0521399768427
  30    -0.049559190858545
  31    -0.0019045376227454
  32    0.0031696347064544
  33    0.00057043088431258