[Molden Format]
made by pyscf v[2.0.1]
[Atoms] (AU)
C   1   6     0.00000000000000     0.00000000000000     0.00000000000000
C   2   6     2.85272299873892     0.00000000000000     0.00000000000000
H   3   1     3.62066923017674     0.00000000000000     1.90331545357504
F   4   9     3.65943188126013    -2.04308229183900    -1.24074875274501
F   5   9     3.65943188126013     2.04308229183900    -1.24074875274501
F   6   9    -0.80670888252121    -2.22749704090168     0.86712147444210
H   7   1    -0.76794623143782     0.33050726003861    -1.87439981510865
F   8   9    -0.80670888252121     1.79658952118831     1.57667650804493
[GTO]
1 0
 s    8 1.00
                  6665  0.00069158396281299
                  1000  0.0053257961529341
                   228   0.027060721042034
                 64.71    0.10165684614077
                 21.06     0.2745748236174
                 7.495    0.44829431892377
                 2.797    0.28490261071525
                0.5215   0.015194859206082
 s    8 1.00
                  6665  -0.00029326965268655
                  1000  -0.0023180354739745
                   228  -0.011499786038565
                 64.71  -0.046826727009787
                 21.06   -0.12846616875047
                 7.495   -0.30126627246289
                 2.797   -0.25563070233011
                0.5215      1.093793361012
 s    1 1.00
                0.1596                   1
 p    3 1.00
                 9.439   0.056979251590039
                 2.002    0.31320721150073
                0.5456    0.76037674173753
 p    1 1.00
                0.1517                   1
 d    1 1.00
                  0.55                   1

2 0
 s    8 1.00
                  6665  0.00069158396281299
                  1000  0.0053257961529341
                   228   0.027060721042034
                 64.71    0.10165684614077
                 21.06     0.2745748236174
                 7.495    0.44829431892377
                 2.797    0.28490261071525
                0.5215   0.015194859206082
 s    8 1.00
                  6665  -0.00029326965268655
                  1000  -0.0023180354739745
                   228  -0.011499786038565
                 64.71  -0.046826727009787
                 21.06   -0.12846616875047
                 7.495   -0.30126627246289
                 2.797   -0.25563070233011
                0.5215      1.093793361012
 s    1 1.00
                0.1596                   1
 p    3 1.00
                 9.439   0.056979251590039
                 2.002    0.31320721150073
                0.5456    0.76037674173753
 p    1 1.00
                0.1517                   1
 d    1 1.00
                  0.55                   1

3 0
 s    3 1.00
                 13.01   0.033498726389998
                 1.962    0.23480080117413
                0.4446     0.8136829578829
 s    1 1.00
                 0.122                   1
 p    1 1.00
                 0.727                   1

4 0
 s    8 1.00
                 14710  0.00072067370873197
                  2207  0.0055504869689163
                 502.8   0.028254207662589
                 142.6    0.10639582836653
                 46.47    0.28668420124307
                  16.7    0.44843796582416
                 6.356    0.26464118141135
                 1.316   0.015326060993048
 s    8 1.00
                 14710  -0.00032119389049893
                  2207  -0.0025461915683188
                 502.8  -0.012643359507821
                 142.6   -0.05195749170489
                 46.47   -0.14344713812646
                  16.7   -0.33243762329603
                 6.356   -0.21865906750347
                 1.316     1.0955904138622
 s    1 1.00
                0.3897                   1
 p    3 1.00
                 22.67   0.064834021493887
                 4.977    0.34053535983101
                 1.347    0.73464640679382
 p    1 1.00
                0.3471                   1
 d    1 1.00
                  1.64                   1

5 0
 s    8 1.00
                 14710  0.00072067370873197
                  2207  0.0055504869689163
                 502.8   0.028254207662589
                 142.6    0.10639582836653
                 46.47    0.28668420124307
                  16.7    0.44843796582416
                 6.356    0.26464118141135
                 1.316   0.015326060993048
 s    8 1.00
                 14710  -0.00032119389049893
                  2207  -0.0025461915683188
                 502.8  -0.012643359507821
                 142.6   -0.05195749170489
                 46.47   -0.14344713812646
                  16.7   -0.33243762329603
                 6.356   -0.21865906750347
                 1.316     1.0955904138622
 s    1 1.00
                0.3897                   1
 p    3 1.00
                 22.67   0.064834021493887
                 4.977    0.34053535983101
                 1.347    0.73464640679382
 p    1 1.00
                0.3471                   1
 d    1 1.00
                  1.64                   1

6 0
 s    8 1.00
                 14710  0.00072067370873197
                  2207  0.0055504869689163
                 502.8   0.028254207662589
                 142.6    0.10639582836653
                 46.47    0.28668420124307
                  16.7    0.44843796582416
                 6.356    0.26464118141135
                 1.316   0.015326060993048
 s    8 1.00
                 14710  -0.00032119389049893
                  2207  -0.0025461915683188
                 502.8  -0.012643359507821
                 142.6   -0.05195749170489
                 46.47   -0.14344713812646
                  16.7   -0.33243762329603
                 6.356   -0.21865906750347
                 1.316     1.0955904138622
 s    1 1.00
                0.3897                   1
 p    3 1.00
                 22.67   0.064834021493887
                 4.977    0.34053535983101
                 1.347    0.73464640679382
 p    1 1.00
                0.3471                   1
 d    1 1.00
                  1.64                   1

7 0
 s    3 1.00
                 13.01   0.033498726389998
                 1.962    0.23480080117413
                0.4446     0.8136829578829
 s    1 1.00
                 0.122                   1
 p    1 1.00
                 0.727                   1

8 0
 s    8 1.00
                 14710  0.00072067370873197
                  2207  0.0055504869689163
                 502.8   0.028254207662589
                 142.6    0.10639582836653
                 46.47    0.28668420124307
                  16.7    0.44843796582416
                 6.356    0.26464118141135
                 1.316   0.015326060993048
 s    8 1.00
                 14710  -0.00032119389049893
                  2207  -0.0025461915683188
                 502.8  -0.012643359507821
                 142.6   -0.05195749170489
                 46.47   -0.14344713812646
                  16.7   -0.33243762329603
                 6.356   -0.21865906750347
                 1.316     1.0955904138622
 s    1 1.00
                0.3897                   1
 p    3 1.00
                 22.67   0.064834021493887
                 4.977    0.34053535983101
                 1.347    0.73464640679382
 p    1 1.00
                0.3471                   1
 d    1 1.00
                  1.64                   1

[5d]
[7f]
[9g]

[MO]
 Sym= A
 Ene=               0
 Spin= Alpha
 Occup=    1.00000
   1    -0.00021041392366085
   2    7.596364117666e-05
   3    0.0031735348737181
   4    0.00047593193424504
   5    5.590865997476e-06
   6    -7.9866931092197e-06
   7    0.0015407863685804
   8    -4.9282680065846e-05
   9    0.00043963765355079
  10    -3.9432431791561e-05
  11    9.6409544801565e-05
  12    4.7564610368082e-06
  13    8.3405376706754e-05
  14    4.1744537509409e-06
  15        1.001910450647
  16     0.004220238401131
  17    -0.0073975849303383
  18    0.00058949161936497
  19    1.7739997228363e-05
  20    -0.0011215982527662
  21    0.0015855439928519
  22    2.5955269264743e-05
  23    -0.00074084996166774
  24    -8.3182890264833e-05
  25    -0.00011475296674921
  26    -4.9003382691674e-06
  27    -0.0003344332964562
  28    2.0846533483115e-06
  29    0.0009715395229707
  30    0.0015395838068032
  31    -0.00022280460553817
  32    -4.2652375263749e-06
  33    -6.6744630827995e-05
  34    0.00015041442326628
  35    0.00066608509171286
  36    -0.00012108034684632
  37    -7.3848260299568e-05
  38    0.00030728657889272
  39      0.00014256973625
  40    0.00013151414335282
  41    -0.00077335294176969
  42    -0.00040004641702741
  43    4.117368492445e-05
  44    2.9469070032974e-05
  45    -0.00011336427376634
  46    8.603420475339e-05
  47    6.9814869498961e-05
  48    0.00015729252812985
  49    0.00067959102807285
  50    -0.00016343431418495
  51    -7.2503556013769e-05
  52    -0.00030601884957653
  53    0.00014186357435499
  54    0.00013613637823664
  55    0.00078475134130069
  56    -0.00040765110478864
  57    4.1476011889922e-05
  58    3.0001375990556e-05
  59    0.00011611699050348
  60    8.7794219788745e-05
  61    -7.1728592392174e-05
  62    -8.2460757586323e-06
  63    -5.5452329582688e-06
  64    -0.00014812375629309
  65    5.311583610577e-06
  66    1.1399911531979e-05
  67    8.6353843193395e-06
  68    9.2758681248997e-05
  69    -8.5521545011687e-05
  70    -4.6710087044054e-05
  71    -2.2488585314487e-05
  72    -9.8401125210658e-06
  73    -1.0313373364579e-05
  74    2.299359199197e-05
  75    1.3597465959503e-05
  76    -5.0192647542591e-05
  77    0.00043675796541727
  78    9.8132472517832e-05
  79    -1.7286908510138e-06
  80    2.1294091925006e-05
  81    -9.6735646151493e-07
  82    5.9723304680665e-06
  83    -0.00019062880763409
  84    7.3752208198594e-07
  85    -1.0581720690874e-05
  86    8.3807786369287e-06
  87    6.6935843622321e-05
  88    9.4784742109013e-05
  89    -2.9820073942571e-05
  90    -1.2816022751096e-05
  91    -1.3632231538709e-05
  92    1.486344616799e-05
  93    2.4745167122886e-05
  94    -6.9459561063164e-06
 Sym= A
 Ene=               1
 Spin= Alpha
 Occup=    1.00000
   1       1.0019104507274
   2    0.0042202369468276
   3    -0.0073975854669601
   4    -0.00058949041837837
   5    -0.00017727990730697
   6    0.0011076438710665
   7    -0.001585543241923
   8    -0.00010308586996098
   9    0.0007341020820415
  10    -6.9235238106246e-05
  11    -0.00011337185186298
  12    8.6437970002914e-05
  13    -0.00032638091470658
  14    1.7872347438789e-05
  15    -0.00021041262645548
  16    7.5962128069653e-05
  17    0.0031735337343698
  18    -0.00047593219574285
  19    4.1184097830744e-06
  20    8.8335645480179e-06
  21    -0.0015407860018893
  22    2.7808713763075e-05
  23    -0.00044151663939746
  24    -4.1235977117466e-05
  25    9.4219549087489e-05
  26    -7.0528028391093e-06
  27    8.2364120505534e-05
  28    -2.0852717851897e-05
  29    -5.0195851059785e-05
  30    0.0004367564102594
  31    -9.8132388800347e-05
  32    1.9952726978882e-06
  33    -2.1270573073527e-05
  34    -8.2459735665934e-06
  35    -5.5450186943261e-06
  36    -0.00014812330576227
  37    -5.3127631382695e-06
  38    1.2727736663356e-05
  39    -6.5233764430552e-06
  40    -9.2759549721378e-05
  41    -9.2332559176686e-05
  42    3.1150691584482e-05
  43    -1.9017100704331e-05
  44    -1.2051820436705e-05
  45    1.2420355851794e-05
  46    2.4997852692039e-05
  47    -1.1682217156544e-05
  48    -9.6754532846773e-07
  49    5.9733658375638e-06
  50    -0.00019062750221996
  51    -7.3386648904213e-07
  52    -8.9662202619177e-06
  53    -1.0091162055603e-05
  54    -6.6933422259835e-05
  55    8.816608100211e-05
  56    4.5826171815379e-05
  57    -1.7285088212804e-05
  58    -1.2218934735907e-05
  59    -1.440263637648e-05
  60    2.2164922390617e-05
  61    9.2075845692006e-06
  62    0.00015041401907717
  63    0.00066607865410502
  64    -0.00012108555224975
  65    7.3845026603738e-05
  66    0.00032735880525084
  67    -8.704957088963e-05
  68    -0.0001315160151515
  69    -0.00083108177937552
  70    0.0002596731220635
  71    7.0643226071288e-05
  72    1.6898204727912e-05
  73    7.9619516341462e-05
  74    0.00010304867672929
  75    -7.3871776765215e-05
  76    0.00097153607029366
  77    0.0015395823301356
  78    0.00022280448863391
  79    -1.5790047036254e-05
  80    6.4989865415428e-05
  81    0.00015729407033868
  82    0.00067959648487172
  83    -0.0001634295482057
  84    7.2512968370025e-05
  85    -0.00027674717839481
  86    -0.00019285580789198
  87    -0.00013613025903124
  88    0.00070203372197699
  89    0.00053772375117161
  90    2.9137776695599e-06
  91    4.2000817189839e-05
  92    -0.00013641266409926
  93    6.5530187198443e-05
  94    6.5428842828003e-05
 Sym= A
 Ene=               2
 Spin= Alpha
 Occup=    1.00000
   1    -0.00017935476057781
   2    0.00030338270010464
   3    0.0035661967521863
   4    -0.0003974221468026
   5    -0.0008949831883451
   6    0.00036162431592504
   7    0.00019585754738431
   8    -0.0013925658408125
   9     0.000877566672677
  10    -6.1912747617743e-05
  11    -5.1404710240594e-05
  12    -7.1396118981528e-05
  13    -7.2751416292453e-05
  14    8.9389824120403e-05
  15    4.4670812335345e-05
  16    4.7184834970808e-05
  17    -0.0013024657444294
  18    0.0001354581430886
  19    -1.7483003364636e-05
  20    7.6256731341476e-06
  21    0.00071300493722238
  22    0.00024260399123727
  23    -0.00017325018121272
  24    4.0505866337468e-06
  25    1.2429705148752e-05
  26    -1.6942868837752e-05
  27    -8.9195987723985e-05
  28    -9.4727708936318e-06
  29    0.00010088874692537
  30    -0.00011366225580165
  31    4.7259959254306e-05
  32    3.7893976727824e-06
  33    2.8433383606737e-06
  34     1.46994107819e-05
  35    2.7772450801249e-05
  36     4.76634110749e-06
  37    -8.8218176264556e-06
  38    -3.3763804228033e-07
  39    -2.3521064710893e-05
  40    5.8426923471686e-05
  41    5.120498891576e-06
  42    4.4552529614746e-05
  43    9.0078689344567e-06
  44      1.0143258547e-05
  45    -4.6100141746439e-06
  46    -1.7475068663161e-05
  47    8.1140839956287e-07
  48    -2.493051917653e-05
  49    -4.433817291316e-05
  50    0.00010748439069135
  51    2.5172048616058e-05
  52    -9.4947739065733e-06
  53    5.6737588381142e-07
  54    -0.00018834224951393
  55    -1.6359675291466e-05
  56    1.5139470085867e-05
  57    -2.5621858306281e-06
  58    2.8225285951704e-06
  59    2.8857859162221e-06
  60    1.0898609544542e-06
  61    -1.0391427379918e-06
  62       1.0010286549824
  63    0.00079649383807819
  64    -0.0057928890646264
  65    0.00073710917114963
  66    0.0021127377637642
  67    -0.00081921167738691
  68    -0.00027271609694137
  69    -0.00058313648994182
  70    0.0001545516501926
  71    3.6398198639162e-05
  72    3.0598281100124e-05
  73    6.4561139763534e-05
  74    8.3967375126984e-05
  75    -6.700468189228e-05
  76    -0.00022120479881514
  77    -5.906094892805e-05
  78    1.1712937637512e-05
  79    0.00015243027804275
  80    -6.7779968581285e-05
  81    8.8808541412304e-05
  82    0.00014605844417502
  83    -0.00064934122289459
  84    -4.3542348811315e-06
  85    2.7325343661931e-05
  86    4.8559791244375e-05
  87    -2.6835972681285e-05
  88    0.00042901423702788
  89    -7.6732097586496e-05
  90    1.690309650046e-05
  91    -1.0545065913229e-05
  92    -9.8180703387789e-06
  93    1.5304228446433e-05
  94    1.3061618124638e-05
 Sym= A
 Ene=               3
 Spin= Alpha
 Occup=    1.00000
   1    4.4674130201482e-05
   2    4.7214317303317e-05
   3    -0.0013024250901201
   4    -0.00013542328324047
   5    -1.5904319524968e-05
   6    -1.0563138600138e-05
   7    -0.0007130018427865
   8    0.00020886074979198
   9    0.00021272039425657
  10    1.1213497113216e-05
  11    1.3880392969096e-05
  12    2.9973574272823e-05
  13    -8.5054730378673e-05
  14    7.1619841124552e-06
  15    -0.00017933212773028
  16    0.00030354153666209
  17    0.0035662274243828
  18    0.0003974837234705
  19    -0.00081876936394386
  20    -0.00051164583760906
  21    -0.00019584034927899
  22    -0.0012190566477948
  23    -0.0011060208138496
  24    -3.6089045325102e-05
  25    -6.6154286307356e-05
  26    9.7864050260014e-05
  27    -5.7826504987516e-05
  28    -7.9129988194208e-05
  29    -0.00022124937171355
  30    -5.9141614879759e-05
  31    -1.1710638995476e-05
  32    0.00013834135411414
  33    9.3216230787127e-05
  34       1.0010286561521
  35    0.00079559281680036
  36    -0.0057939613424149
  37    -0.00073692741661539
  38    0.0019388298999409
  39    0.0011743627957473
  40    0.00027284979586792
  41    -0.00054714587398371
  42    -0.00025297251517173
  43    1.3441085439378e-05
  44    4.1764240211834e-05
  45    -8.5789587267447e-05
  46    7.0700426328861e-05
  47    6.0672607353853e-05
  48    8.8806337778582e-05
  49    0.00014605533809916
  50    -0.00064932305471332
  51    4.3548068213465e-06
  52    3.5335830320739e-05
  53    -4.30872844112e-05
  54    2.6832800452915e-05
  55    0.00040916754233669
  56    0.00015005898193525
  57    1.864433648102e-05
  58    -1.2652050102218e-05
  59    1.6015102465929e-06
  60    1.6308745506383e-05
  61    -1.103197321779e-05
  62    1.4697849599329e-05
  63    2.7771820419678e-05
  64    4.7815447383501e-06
  65    8.8242255368947e-06
  66    -4.4221956618616e-06
  67    2.3101611034699e-05
  68    -5.8426862882651e-05
  69    1.2780781364524e-05
  70    -4.2985904095857e-05
  71    1.042213434163e-05
  72    9.8481730156193e-06
  73    4.6517181114748e-06
  74    -1.6658459849679e-05
  75    -2.5597780165403e-06
  76    0.00010089611234263
  77    -0.00011369783172861
  78    -4.7259657720801e-05
  79    4.2241607809985e-06
  80    -2.1425345001004e-06
  81    -2.4928870394819e-05
  82    -4.4338351671425e-05
  83    0.00010747421741896
  84    -2.517521719199e-05
  85    -9.2490612900486e-06
  86    -2.2005748729022e-06
  87    0.00018833856923254
  88    -1.3480508630545e-05
  89    -1.773874679471e-05
  90    -3.3295835285778e-06
  91    2.960023470544e-06
  92    -2.1397787669537e-06
  93    6.4692312749038e-07
  94    5.3326118531745e-07
 Sym= A
 Ene=               4
 Spin= Alpha
 Occup=    1.00000
   1    4.6655795698553e-05
   2    5.4178536731285e-05
   3    -0.0012491270916037
   4    -0.00014530226303958
   5    2.1863532007767e-05
   6    -1.6137687430081e-05
   7    -0.00063897216281156
   8    -0.00014931201550893
   9    0.00026817023870614
  10    2.9467754507335e-05
  11    2.9555210155303e-05
  12    -3.8559842193833e-05
  13    -7.8495826526834e-05
  14    -5.3887536502661e-06
  15    -0.00017298597635546
  16    0.00030779684549337
  17     0.003457852014856
  18    0.00039662617308465
  19    0.00080832636315753
  20    -0.0005073023480517
  21    -0.00016479283805058
  22    0.0012011007824134
  23    -0.0010729147858604
  24    -2.8617722676582e-05
  25    -5.33498754325e-05
  26    -9.9248811466497e-05
  27    -5.7306511363694e-05
  28    8.3430117463805e-05
  29    -0.0002317217685787
  30    -6.0561484830098e-05
  31    -8.5560822062785e-06
  32    -0.0001377445623077
  33    9.5356939965298e-05
  34    8.6413052391339e-05
  35    0.00014188888638048
  36    -0.00062748518409458
  37    2.8679692348513e-06
  38    -3.6046515044026e-05
  39    -4.0292309563603e-05
  40    2.7861469003017e-05
  41    -0.00039437844284058
  42    0.00014525561371168
  43    1.8326510043325e-05
  44    -1.2387219582728e-05
  45    -9.9133746021911e-07
  46    1.4942604826582e-05
  47    1.1105259589275e-05
  48       1.0010250302549
  49    0.00083319387506038
  50    -0.0057113434668928
  51    -0.00074637237128863
  52    -0.0019091631234518
  53    0.0011465542191663
  54    0.00027297053405683
  55    0.00054557343290918
  56    -0.00027814571983985
  57    1.2454227313529e-05
  58    4.2854492832067e-05
  59    8.6764713471078e-05
  60    7.0088090817947e-05
  61    -5.9160465859628e-05
  62    -2.5928209912455e-05
  63    -4.6668940790339e-05
  64    0.00012255761139466
  65    -2.084199604348e-05
  66    8.3986465544591e-06
  67    3.1502866534864e-06
  68    0.00016363175984987
  69    1.4323540713151e-05
  70    -3.7510959857567e-05
  71    4.3763487216551e-06
  72    2.6738805466108e-06
  73    -2.9314299233694e-06
  74    3.6460742869392e-06
  75    -3.4903419745916e-06
  76    7.3379026467143e-05
  77    -4.8488431774067e-05
  78    -6.4047536970624e-05
  79    -1.6024936337648e-05
  80    -1.2287896705399e-05
  81    3.1704121719864e-05
  82    6.4348354700462e-05
  83    -6.7771382684794e-05
  84    2.5173972310295e-05
  85    -5.6918518900232e-06
  86    5.6423982761418e-06
  87    -7.195152440818e-05
  88    -7.7927681754457e-06
  89    -1.3060571984326e-05
  90    7.9352650137851e-06
  91    1.0999000515669e-05
  92    1.3569155227065e-06
  93    -1.6377817065076e-05
  94    -2.1288843830686e-06
 Sym= A
 Ene=               5
 Spin= Alpha
 Occup=    1.00000
   1    -0.00017286519821257
   2    0.00030873380504941
   3    0.0034581463698955
   4    -0.00039703649565614
   5    0.00070884239130534
   6    0.00064077979501551
   7    0.00016479728571646
   8    0.00099661320449467
   9    0.0012651048966757
  10    3.5694082839007e-06
  11    -6.7086226270804e-05
  12    0.00011160114313388
  13    -3.8693681346109e-05
  14    -7.2971882843729e-05
  15    4.6669706365647e-05
  16    5.4262988875594e-05
  17      -0.0012491028028
  18    0.00014523042317104
  19    1.8787154262978e-05
  20    1.9774486294431e-05
  21    0.0006390862138172
  22    -0.0001005454922243
  23    -0.00028985488909244
  24    4.1598029292463e-05
  25    3.0002129809431e-05
  26    4.0930250988191e-05
  27    -7.1470188057821e-05
  28    1.3585043700466e-07
  29    7.3409614962945e-05
  30    -4.8696312484854e-05
  31    6.4049369530127e-05
  32    -1.7910627926733e-05
  33    9.3179375506212e-06
  34    -2.5922243799751e-05
  35    -4.665805194709e-05
  36    0.00012254759139015
  37    2.0832514234351e-05
  38    8.8188958627449e-06
  39    -1.6567022571985e-06
  40    -0.00016364247837079
  41    7.5931932819812e-06
  42    3.938876245997e-05
  43    4.9523073021544e-06
  44    3.2396655192996e-06
  45    8.3270049874457e-07
  46    3.9782848123901e-06
  47    2.9740721503158e-06
  48    3.169603058267e-05
  49    6.4340441111682e-05
  50    -6.769166592459e-05
  51    -2.5186126986902e-05
  52    -4.614909974204e-06
  53    -6.54609737854e-06
  54    7.1923790575518e-05
  55    -9.9568974718638e-06
  56    1.1497391671146e-05
  57    7.6027728712553e-06
  58    1.1200173249061e-05
  59    -8.2621967499596e-07
  60    -1.6569811289491e-05
  61    1.8734437015816e-07
  62    8.6407618486339e-05
  63    0.00014183959343727
  64    -0.0006275170256006
  65    -2.8825351062193e-06
  66    -4.2615249835477e-05
  67    3.3445881037077e-05
  68    -2.7865915019043e-05
  69    -0.00036326785021152
  70    -0.00021152341408944
  71    1.738951028338e-05
  72    -1.4122390132927e-05
  73    -7.0470333523993e-06
  74    1.4394692675164e-05
  75    -8.7864646056421e-06
  76    -0.00023177097505766
  77    -6.0825791959936e-05
  78    8.5350671551486e-06
  79    -0.00011906409094953
  80    -0.00011779876418557
  81       1.0010250326039
  82    0.00082807953427809
  83    -0.0057174050178349
  84    0.00074652357338019
  85    -0.0016841215872516
  86    -0.0014633025645195
  87    -0.00027291414591597
  88    0.00048693394402641
  89    0.00036689294591398
  90    -1.562394066177e-05
  91    5.2450112396101e-05
  92    -9.7116610853562e-05
  93    5.3818497639507e-05
  94    5.0790423229833e-05
 Sym= A
 Ene=               6
 Spin= Alpha
 Occup=    1.00000
   1    -0.0027496851875214
   2    -0.0031578474808256
   3     0.012006478495942
   4    0.00033100390422362
   5    -0.0020404753829061
   6    -0.00038033907037197
   7     0.030645628320319
   8     -0.02237873414373
   9     0.006078976620367
  10     0.028276766752884
  11     0.014514082188937
  12     0.011314882275851
  13    -0.0086787513619843
  14     0.023796626710581
  15    -0.0017790997688656
  16    -0.032822491935298
  17    -0.081201900743019
  18       0.0430638926642
  19    0.0019845727808991
  20    -0.0092307184487471
  21     0.021076583239835
  22     0.026008725964112
  23    -0.0035819752072724
  24    0.00034006453003101
  25    0.00096115381802785
  26    0.0020974567562314
  27    -0.0016006994702499
  28    0.00041996339040516
  29    -0.0084945763433547
  30     0.028603107460797
  31    -0.0019982199200106
  32    5.0590042578376e-06
  33    0.00065916390178616
  34    -0.0012959774453022
  35    0.0019841844047471
  36     0.021863077843261
  37    -0.0081134851888466
  38    0.0074423248094747
  39    0.0072367955906699
  40    -0.0069153964520173
  41    0.0093037395431625
  42    0.0093343396798025
  43    0.00010038817150394
  44    0.00044605948082136
  45    0.00018750387332763
  46    -0.00060568237694986
  47    0.00050352972741671
  48    0.0004145859047741
  49    0.0011544967627919
  50    -0.0021559693204627
  51    -0.0016442554295804
  52    -0.0025911011311884
  53    -0.00043660888944774
  54    -0.0036071223965321
  55    -0.0042137886088781
  56    -0.0012790879015358
  57    -3.6972534307828e-05
  58    0.00020432114040484
  59    0.00015527185614039
  60    -0.00024224254242878
  61    -0.00052583820543775
  62    0.00081074827875466
  63    0.00022228327983417
  64    -0.010123407362677
  65    -0.003146199041433
  66    -0.0019112252189802
  67    -0.0017363361285214
  68    -0.0048813570684996
  69    -0.0021191570067432
  70    0.00022678859508485
  71    0.0006692762258016
  72    0.00027746153710982
  73    0.00017430095752827
  74    -0.00030781365078288
  75    0.00027758660591284
  76     0.051252530857269
  77     0.047238976559666
  78    -0.0019506105367449
  79    0.0029119369253035
  80    0.0012446857512914
  81    -0.0016147117035877
  82    0.0030054681479705
  83     0.016728452822086
  84      0.53996407779902
  85    -0.093388381046635
  86      0.38346514122668
  87      0.37567534643505
  88    -0.066272388837698
  89      0.26382792321329
  90    -0.0087650219805764
  91    -0.0040955721887254
  92    -0.0045011742994293
  93    0.0026394868012213
  94    -0.0089123236923996
 Sym= A
 Ene=               7
 Spin= Alpha
 Occup=    1.00000
   1    0.0017788948497864
   2     0.032821622007073
   3     0.081201951424631
   4      0.04306309878044
   5    -0.00035173654949246
   6    -0.0094348855985894
   7     0.021076487557186
   8    -0.024991187228288
   9    -0.0080440820610496
  10    0.00025475631106175
  11    -0.0008735119427732
  12    0.0017978978425277
  13     0.001944035539737
  14    0.00058037927994929
  15    0.0027492402409222
  16    0.0031543235889099
  17    -0.012008124790089
  18    0.00032852481696175
  19    0.0020744346810599
  20    -1.6874694618139e-05
  21     0.030644884898134
  22     0.020984959249446
  23    0.0098739400362066
  24    -0.023874197986822
  25    -0.010160483408682
  26     0.017524753762912
  27     0.011219876538293
  28     0.025954789465019
  29     -0.05125355958703
  30    -0.047239198526984
  31    -0.0019507392523495
  32    -0.0030839977795203
  33    0.00072016683240524
  34    -0.00081080435005394
  35    -0.00022181460680834
  36     0.010125728358488
  37    -0.0031465102983592
  38     0.002185670572666
  39    -0.0013775470953184
  40    -0.004881668687522
  41    0.0020496110177839
  42    0.00059179867108822
  43    -0.00059539085906019
  44    -0.00022502689565041
  45    0.00030939393524108
  46    0.00035052358000425
  47    0.00032153727907266
  48    0.0016162550372468
  49    -0.0029891888301202
  50    -0.016709109456395
  51      0.53995011504409
  52     0.025412677718745
  53      0.39387386508895
  54      0.37566551764385
  55     0.019473515060443
  56      0.27134024166338
  57    0.0071047499974879
  58    0.0024854288181647
  59    -0.0063744791276097
  60    -0.0035976386082254
  61    -0.0094881182767419
  62    0.0012959364055291
  63    -0.0019840942955749
  64    -0.021862587344959
  65    -0.0081132156544596
  66    -0.0085856267995378
  67    0.0058343736225028
  68    -0.0069150678755516
  69    -0.010783043758113
  70    0.0075767685517762
  71    -5.6130246549446e-05
  72    -0.0003518481575002
  73    0.00010234196460178
  74    0.00063122150656761
  75    0.00057333401314697
  76     0.008494184398539
  77    -0.028603025207135
  78    -0.0019982605530736
  79    -0.00011946325365184
  80    0.00064822411784115
  81    -0.0004145840101169
  82    -0.0011545560356333
  83    0.0021556781146923
  84    -0.0016446061185575
  85    0.0026274225754077
  86    2.0266318447138e-05
  87    -0.0036073435157045
  88    0.0043719490615669
  89    -0.0005277363988021
  90    7.4953541015669e-05
  91    -0.00029253105159971
  92    9.3514566050399e-05
  93    0.00026418764172216
  94    -0.00048234201524174
 Sym= A
 Ene=               8
 Spin= Alpha
 Occup=    1.00000
   1    0.0021805122791605
   2     0.032025429114212
   3     0.076532267233866
   4     0.044582631704379
   5    0.0022569881908725
   6    -0.0055358567946262
   7     0.029257650126158
   8     0.029181814010273
   9    0.0006439258151261
  10    -0.0006096843341456
  11    -0.00051770600665441
  12    -0.0023717505792788
  13    0.0018561797111299
  14    -0.0007730879547124
  15    0.0027827097834433
  16    0.0027087880087264
  17    -0.017010770491812
  18    0.0004674640394519
  19    -0.0016062955536245
  20    0.0004832677811758
  21     0.034484197784634
  22    -0.021739991155738
  23    0.0094530864125164
  24     -0.02400528718727
  25    -0.010171562205346
  26    -0.017620377237962
  27      0.01109348598025
  28    -0.026222173666134
  29    -0.051712388158629
  30    -0.049220637592699
  31    -0.0019319451501275
  32    0.0031274641838635
  33    0.00085712719523171