[Molden Format]
made by pyscf v[2.0.1]
[Atoms] (AU)
C   1   6     0.00000000000000     0.00000000000000     0.00000000000000
C   2   6     2.85272299873892     0.00000000000000     0.00000000000000
H   3   1     3.62066923017674     0.00000000000000     1.90331545357504
F   4   9     3.65943188126013    -2.04308229183900    -1.24074875274501
F   5   9     3.65943188126013     2.04308229183900    -1.24074875274501
F   6   9    -0.80670888252121     1.79658952118831    -1.57667650804493
H   7   1    -0.76794623143782     0.33050726003861     1.87439981510865
F   8   9    -0.80670888252121    -2.22749704090168    -0.86712147444210
[GTO]
1 0
 s    8 1.00
                  6665  0.00069158396281299
                  1000  0.0053257961529341
                   228   0.027060721042034
                 64.71    0.10165684614077
                 21.06     0.2745748236174
                 7.495    0.44829431892377
                 2.797    0.28490261071525
                0.5215   0.015194859206082
 s    8 1.00
                  6665  -0.00029326965268655
                  1000  -0.0023180354739745
                   228  -0.011499786038565
                 64.71  -0.046826727009787
                 21.06   -0.12846616875047
                 7.495   -0.30126627246289
                 2.797   -0.25563070233011
                0.5215      1.093793361012
 s    1 1.00
                0.1596                   1
 p    3 1.00
                 9.439   0.056979251590039
                 2.002    0.31320721150073
                0.5456    0.76037674173753
 p    1 1.00
                0.1517                   1
 d    1 1.00
                  0.55                   1

2 0
 s    8 1.00
                  6665  0.00069158396281299
                  1000  0.0053257961529341
                   228   0.027060721042034
                 64.71    0.10165684614077
                 21.06     0.2745748236174
                 7.495    0.44829431892377
                 2.797    0.28490261071525
                0.5215   0.015194859206082
 s    8 1.00
                  6665  -0.00029326965268655
                  1000  -0.0023180354739745
                   228  -0.011499786038565
                 64.71  -0.046826727009787
                 21.06   -0.12846616875047
                 7.495   -0.30126627246289
                 2.797   -0.25563070233011
                0.5215      1.093793361012
 s    1 1.00
                0.1596                   1
 p    3 1.00
                 9.439   0.056979251590039
                 2.002    0.31320721150073
                0.5456    0.76037674173753
 p    1 1.00
                0.1517                   1
 d    1 1.00
                  0.55                   1

3 0
 s    3 1.00
                 13.01   0.033498726389998
                 1.962    0.23480080117413
                0.4446     0.8136829578829
 s    1 1.00
                 0.122                   1
 p    1 1.00
                 0.727                   1

4 0
 s    8 1.00
                 14710  0.00072067370873197
                  2207  0.0055504869689163
                 502.8   0.028254207662589
                 142.6    0.10639582836653
                 46.47    0.28668420124307
                  16.7    0.44843796582416
                 6.356    0.26464118141135
                 1.316   0.015326060993048
 s    8 1.00
                 14710  -0.00032119389049893
                  2207  -0.0025461915683188
                 502.8  -0.012643359507821
                 142.6   -0.05195749170489
                 46.47   -0.14344713812646
                  16.7   -0.33243762329603
                 6.356   -0.21865906750347
                 1.316     1.0955904138622
 s    1 1.00
                0.3897                   1
 p    3 1.00
                 22.67   0.064834021493887
                 4.977    0.34053535983101
                 1.347    0.73464640679382
 p    1 1.00
                0.3471                   1
 d    1 1.00
                  1.64                   1

5 0
 s    8 1.00
                 14710  0.00072067370873197
                  2207  0.0055504869689163
                 502.8   0.028254207662589
                 142.6    0.10639582836653
                 46.47    0.28668420124307
                  16.7    0.44843796582416
                 6.356    0.26464118141135
                 1.316   0.015326060993048
 s    8 1.00
                 14710  -0.00032119389049893
                  2207  -0.0025461915683188
                 502.8  -0.012643359507821
                 142.6   -0.05195749170489
                 46.47   -0.14344713812646
                  16.7   -0.33243762329603
                 6.356   -0.21865906750347
                 1.316     1.0955904138622
 s    1 1.00
                0.3897                   1
 p    3 1.00
                 22.67   0.064834021493887
                 4.977    0.34053535983101
                 1.347    0.73464640679382
 p    1 1.00
                0.3471                   1
 d    1 1.00
                  1.64                   1

6 0
 s    8 1.00
                 14710  0.00072067370873197
                  2207  0.0055504869689163
                 502.8   0.028254207662589
                 142.6    0.10639582836653
                 46.47    0.28668420124307
                  16.7    0.44843796582416
                 6.356    0.26464118141135
                 1.316   0.015326060993048
 s    8 1.00
                 14710  -0.00032119389049893
                  2207  -0.0025461915683188
                 502.8  -0.012643359507821
                 142.6   -0.05195749170489
                 46.47   -0.14344713812646
                  16.7   -0.33243762329603
                 6.356   -0.21865906750347
                 1.316     1.0955904138622
 s    1 1.00
                0.3897                   1
 p    3 1.00
                 22.67   0.064834021493887
                 4.977    0.34053535983101
                 1.347    0.73464640679382
 p    1 1.00
                0.3471                   1
 d    1 1.00
                  1.64                   1

7 0
 s    3 1.00
                 13.01   0.033498726389998
                 1.962    0.23480080117413
                0.4446     0.8136829578829
 s    1 1.00
                 0.122                   1
 p    1 1.00
                 0.727                   1

8 0
 s    8 1.00
                 14710  0.00072067370873197
                  2207  0.0055504869689163
                 502.8   0.028254207662589
                 142.6    0.10639582836653
                 46.47    0.28668420124307
                  16.7    0.44843796582416
                 6.356    0.26464118141135
                 1.316   0.015326060993048
 s    8 1.00
                 14710  -0.00032119389049893
                  2207  -0.0025461915683188
                 502.8  -0.012643359507821
                 142.6   -0.05195749170489
                 46.47   -0.14344713812646
                  16.7   -0.33243762329603
                 6.356   -0.21865906750347
                 1.316     1.0955904138622
 s    1 1.00
                0.3897                   1
 p    3 1.00
                 22.67   0.064834021493887
                 4.977    0.34053535983101
                 1.347    0.73464640679382
 p    1 1.00
                0.3471                   1
 d    1 1.00
                  1.64                   1

[5d]
[7f]
[9g]

[MO]
 Sym= A
 Ene=               0
 Spin= Alpha
 Occup=    1.00000
   1       1.0019080345706
   2    0.0042233241780117
   3    -0.0073029044297002
   4    -0.00055337684516988
   5    -0.0001826456525981
   6    -0.00096496468134182
   7    -0.0015050826932735
   8    -9.5937597322632e-05
   9    -0.0005097172562709
  10    -4.8446142802225e-05
  11    9.3052300530668e-05
  12    -6.6747739404548e-05
  13    -0.00030174196786942
  14    2.0249433662246e-05
  15    -0.00024472520442472
  16    -3.8248297191708e-06
  17    0.0033713391788217
  18    -0.00048644612526441
  19    1.8670134500608e-06
  20    7.2261564486188e-07
  21    -0.0014182411625997
  22    -7.7474611983708e-06
  23    -3.4070215974222e-05
  24    -4.0335935760799e-05
  25    -0.00013425200262951
  26    6.4808312409327e-06
  27    4.2585617819293e-05
  28    -2.0097094871252e-05
  29    -8.69842065077e-05
  30    8.3886974105221e-05
  31    -5.5775910360351e-05
  32    -6.2987429734342e-07
  33    -6.6198764879514e-05
  34    -6.3306017239938e-06
  35    3.3701979370662e-06
  36    -0.00015601206911275
  37    -2.0137641228351e-05
  38    1.6131119137529e-05
  39    6.3711522739782e-06
  40    -9.4031264345087e-05
  41    -8.6951534712156e-05
  42    -3.8616711743514e-05
  43    -1.5246784394646e-05
  44    -1.0889769946124e-05
  45    2.9318386424126e-06
  46    3.3857176242694e-05
  47    -1.4715886223918e-05
  48    -1.2773240232443e-05
  49    -9.6352559497619e-06
  50    -0.00011849194403426
  51    -1.396001091241e-05
  52    -1.6452970566682e-05
  53    4.6653493518219e-06
  54    -0.00010231943203885
  55    7.9611494989183e-05
  56    -2.841229632642e-05
  57    -1.5568889838435e-05
  58    -1.0688960582799e-05
  59    -6.1268963577721e-06
  60    3.2211926917525e-05
  61    1.4672134285322e-05
  62    0.00013885332585875
  63    0.00064230127574555
  64    -4.0437546504755e-05
  65    8.2700318363058e-05
  66    -0.0002730077550883
  67    0.00020172044242503
  68    -0.00015072239605059
  69    0.00063743848275121
  70    -0.00053535817463031
  71    2.2584748234827e-06
  72    -3.8755279447854e-05
  73    0.00012732066100266
  74    5.7551533218082e-05
  75    6.2059186806058e-05
  76    0.00086356179917913
  77    0.0015129651562123
  78    0.00020305518632184
  79    -1.6840428980418e-06
  80    -2.3010268994619e-05
  81    0.0001422412029659
  82    0.00064897038416335
  83    -5.9752469815029e-05
  84    8.2460158256424e-05
  85    0.00032533158784867
  86    9.5731815315622e-05
  87    -0.00015417437040326
  88    -0.00079288090030552
  89    -0.00028745148035779
  90    6.7888894838721e-05
  91    -1.5461407376327e-05
  92    -7.9185694614076e-05
  93    9.6798148989328e-05
  94    -7.2858014402703e-05
 Sym= A
 Ene=               1
 Spin= Alpha
 Occup=    1.00000
   1    -0.00024471002159184
   2    -3.8568288844509e-06
   3    0.0033713339144629
   4    0.00048639472386469
   5    -1.7225124112752e-06
   6    1.0424954947545e-06
   7    0.0014182380535806
   8    1.7091298254175e-06
   9    -3.4891598033013e-05
  10    -3.7704157535937e-05
  11    0.0001357006137105
  12    -1.0756248022395e-05
  13    4.4095898239048e-05
  14    3.5204522424042e-06
  15       1.0019080333954
  16    0.0042232979059759
  17    -0.0073029321280862
  18    0.00055345838107134
  19    1.2273352042312e-05
  20    -0.00098199350412808
  21    0.0015051208331557
  22    5.9763837420155e-06
  23    -0.00051862906091108
  24    -5.8145388803552e-05
  25    -9.5159240082628e-05
  26    -3.2165085562143e-06
  27    -0.00030734191695813
  28     3.78508854871e-06
  29    0.00086358782395753
  30    0.0015129748434138
  31    -0.00020305514239036
  32    -2.3392769583383e-06
  33    -2.2955190890406e-05
  34    0.00013894149407578
  35    0.00064230209625686
  36    -4.0437085579733e-05
  37    -8.2667016303545e-05
  38    0.00030398207999583
  39    0.00015121051855843
  40    0.00015074002598347
  41    -0.00072065542180838
  42    -0.00041656305691058
  43    3.836476180276e-05
  44    2.7390889182532e-05
  45    -0.00010913028107605
  46    7.8395853807352e-05
  47    6.7846883255907e-05
  48    0.00014212172208775
  49    0.00064901369048624
  50    -5.9701081339972e-05
  51    -8.2322932919808e-05
  52    -0.0003036925175885
  53    0.00015085050468887
  54    0.0001542624349808
  55    0.00073097072977858
  56    -0.00042071164873624
  57    3.8838422717728e-05
  58    2.7879684950644e-05
  59    0.00011107171851607
  60    8.0024312116471e-05
  61    -6.9070367891276e-05
  62    -6.3447988931457e-06
  63    3.374280067922e-06
  64    -0.00015600065566962
  65    2.0173255928884e-05
  66    -1.4747418398415e-05
  67    9.096748022918e-06
  68    9.4059013668348e-05
  69    7.8946027567547e-05
  70    -5.3113140655952e-05
  71    -1.4572029458249e-05
  72    1.327985059473e-05
  73    -1.4809415605875e-06
  74    3.4246415859944e-05
  75    -1.2601043420763e-05
  76    -8.6983442193371e-05
  77    8.3889898273888e-05
  78     5.57750219845e-05
  79    -1.0874867068455e-05
  80    -6.5302350357486e-05
  81    -1.2756784957626e-05
  82    -9.6488804883746e-06
  83    -0.00011850503371682
  84    1.3991132055489e-05
  85    1.7010778079516e-05
  86    1.7852734153778e-06
  87    0.00010234411238298
  88    -8.3336309625803e-05
  89    -1.412442965345e-05
  90    -1.7520060539049e-05
  91    7.9791733147605e-06
  92    6.655504659105e-06
  93    3.1085065330253e-05
  94    1.630546872913e-05
 Sym= A
 Ene=               2
 Spin= Alpha
 Occup=    1.00000
   1    -0.00020939804543547
   2    0.00021624251802342
   3    0.0038584414204152
   4    -0.00037879897178262
   5    -0.00084006714573501
   6    -0.00033794452507477
   7    0.00033557146451706
   8    -0.0013717683397951
   9    -0.00098477061289085
  10    -5.4783271001495e-05
  11    2.2038180621702e-05
  12    5.7728906399954e-05
  13    -6.3592063146894e-05
  14    7.0191673469319e-05
  15    7.2676706043766e-05
  16    8.9006275969318e-05
  17    -0.0017403000142253
  18    0.00011277725692327
  19    8.0916827653965e-06
  20    -1.496829433203e-05
  21    0.00082214211378896
  22    0.00038446805029892
  23    0.00052085246928158
  24    -1.4039424102835e-05
  25    -3.6694494668297e-05
  26    4.427434658867e-05
  27    -6.1153575027938e-05
  28    -2.4854831440857e-05
  29    8.1370339078651e-05
  30    -0.00016717533920721
  31    -3.4458324681889e-05
  32    -4.3578320659341e-05
  33    -3.0234620033471e-05
  34    -6.7060243492348e-05
  35    -0.00013502147763677
  36    0.00041204657281434
  37    2.7609939738846e-05
  38    -2.3296133915414e-05
  39    -1.7204994494465e-05
  40    -4.8918824429341e-05
  41    9.2530369650722e-05
  42    2.9113644272745e-05
  43    7.4739216428391e-06
  44    6.8659824428734e-07
  45    -1.0977100098318e-05
  46    -1.215680075779e-05
  47    9.4281230906824e-07
  48    -2.7840449497397e-05
  49    -4.9161638566654e-05
  50    0.00021486664450324
  51    -5.2102895273565e-07
  52    -1.2864878159237e-06
  53    1.4527577267078e-05
  54    -9.517631502639e-05
  55    -0.00010410910901542
  56    -4.5871739080356e-05
  57    -9.6714171373593e-06
  58    -2.8562914771991e-06
  59    7.5376802108406e-06
  60    -1.4643080812087e-05
  61    3.0420200204982e-06
  62    0.0001041281182418
  63    0.00017616831963699
  64    -0.00074346167718616
  65    2.1674163165435e-07
  66    2.547277657878e-05
  67    -4.5852416089087e-05
  68    -5.170982346403e-05
  69    0.00043832066018963
  70    6.4521446173988e-05
  71    1.6670059700394e-05
  72    9.0608096032031e-06
  73    9.5794925960072e-06
  74    1.670684960078e-05
  75    1.4028963740302e-05
  76    -0.00025395781613406
  77    -1.3883825044882e-05
  78    2.4839972045828e-06
  79    0.00014793660647218
  80    7.9121638508887e-05
  81       1.0010265072384
  82    0.0010471549510639
  83    -0.0054928072213611
  84    0.00062361692150702
  85    0.0019425768215989
  86    0.00078412808368395
  87    -0.00032726070118233
  88    -0.00070592243107195
  89    -0.00018853258016167
  90    3.405281877356e-05
  91    -3.4718468383256e-05
  92    -6.4380060125242e-05
  93    8.9954079207922e-05
  94    -7.2119857983123e-05
 Sym= A
 Ene=               3
 Spin= Alpha
 Occup=    1.00000
   1    7.3855798673205e-05
   2    9.0260837216075e-05
   3    -0.0017534508797237
   4    -0.00011631772425587
   5    -2.6085702314801e-06
   6    -1.6541676613272e-05
   7    -0.00082696709371885
   8    -0.00028434334275722
   9    0.00057022100361862
  10    4.6403213986406e-07
  11    3.5610541560257e-05
  12    -5.5114056316974e-05
  13    -5.0788366675529e-05
  14    -1.268744345524e-05
  15    -0.00019558880914789
  16    0.00031691139964289
  17     0.003877531539734
  18    0.00042349645166121
  19    0.00087969301262066
  20    -0.00054778896526661
  21    -0.00033228987429591
  22    0.0011857523529769
  23     -0.00119955860305
  24    -3.2955267269677e-05
  25    -3.5882582078886e-05
  26    -8.9958258175084e-05
  27    -5.3929742297106e-05
  28     6.89515642464e-05
  29    -0.0002503637440994
  30    -3.8220911107558e-05
  31    1.1117979567432e-07
  32    -0.00012789671050892
  33    0.00010102230631653
  34    0.00010344721483987
  35    0.00017230309085248
  36    -0.00074355347694445
  37    1.2669600250097e-06
  38    -4.1177262435547e-05
  39    -4.3095604367641e-05
  40    5.1073719760274e-05
  41    -0.00042799915450148
  42    0.00013897367983162
  43    1.7086111741854e-05
  44    -1.0729093741229e-05
  45    -1.0561548841567e-06
  46    1.6079400970907e-05
  47    1.2131165978268e-05
  48       1.0010261974306
  49    0.00050369983697464
  50    -0.0061348520816474
  51    -0.00076357742728902
  52    -0.0021244624751261
  53    0.0012847207767261
  54    0.00023324099810546
  55    0.0004299579771755
  56    -0.00019369767385135
  57    9.2143944884518e-06
  58    4.3645952297749e-05
  59    7.8067417145104e-05
  60    7.1124579670425e-05
  61    -5.9611485240778e-05
  62    -6.6480854225695e-05
  63    -0.00013320331300017
  64    0.00040930638640455
  65    -2.2204424966798e-05
  66    2.4692990425053e-05
  67    -2.4052725650245e-05
  68    5.0065280315364e-05
  69    -8.5332772426144e-05
  70    4.450236529483e-05
  71    4.412480449353e-06
  72    -6.5774634621894e-07
  73    1.0228310805019e-05
  74    -1.4240282731104e-05
  75    4.5170388187219e-07
  76    8.5330106844287e-05
  77    -0.00015845584126918
  78    3.3803734804546e-05
  79    3.7834127648566e-05
  80    -3.6801281182335e-05
  81    -2.7644568448788e-05
  82    -4.8148672238689e-05
  83    0.0002167765385036
  84    2.8540108157973e-06
  85    4.8594039181481e-06
  86    1.5063030298996e-05
  87    9.8042350865661e-05
  88    9.4646371092503e-05
  89    -6.1307395005586e-05
  90    -6.5168834478881e-06
  91    2.1010016432504e-06
  92    -1.2522757663678e-05
  93    -1.2981160740274e-05
  94    3.2724022752088e-06
 Sym= A
 Ene=               4
 Spin= Alpha
 Occup=    1.00000
   1    7.4370210062843e-05
   2    9.4915479068477e-05
   3    -0.0017048690674953
   4    -0.00012260694169421
   5    8.4322629101358e-06
   6    -1.4444804261171e-05
   7    -0.00071727217513361
   8    0.00035454853065825
   9    0.00051580143661351
  10    -4.1262196887897e-06
  11    2.2069763654664e-05
  12    5.2033595075615e-05
  13    -4.8701679176588e-05
  14    2.2399561120194e-05
  15    -0.00019350292683603
  16    0.00031146206968453
  17    0.0037753717690616
  18    0.00042342774203446
  19    -0.00086820696307095
  20    -0.00053860696758002
  21    -0.00027599202291477
  22    -0.0011763040533549
  23    -0.0011952536064783
  24    -3.1608352770397e-05
  25    -4.5655390943674e-05
  26    8.5499131799811e-05
  27    -5.5078548032211e-05
  28    -6.1585340720967e-05
  29    -0.00024028355311059
  30    -5.2804505706785e-05
  31    -1.273431032754e-07
  32    0.00012621859223378
  33    9.9908054810298e-05
  34       1.0010244328378
  35    0.00055988595184661
  36    -0.0060499185881122
  37    -0.00072866564429867
  38    0.0020998120662953
  39    0.0012512596872448
  40    0.00025015272449057
  41    -0.00044895257090792
  42    -0.00020330202980248
  43    1.0144872682054e-05
  44    4.2661491037789e-05
  45    -7.8599234755133e-05
  46    7.1060863735522e-05
  47    6.0831284499253e-05
  48    0.00010509546642041
  49    0.00017491325709158
  50    -0.00075548498093297
  51    3.4114560914586e-06
  52    4.1448221898477e-05
  53    -4.4038147233317e-05
  54    4.7623124073423e-05
  55    0.0004344669689371
  56    0.00013816400439251
  57    1.7603870402144e-05
  58    -1.106303025311e-05
  59    1.9398865072554e-06
  60    1.6934854221309e-05
  61    -1.2215317112373e-05
  62    -1.8583584254523e-05
  63    -3.0708519752741e-05
  64    0.00021771638581668
  65    2.0945940488945e-05
  66    -2.38345570088e-06
  67    1.1530238527971e-05
  68    1.3850372448743e-05
  69    -9.7586487394805e-05
  70    -7.4510223358341e-06
  71    -4.962463286216e-06
  72    4.7057329135085e-06
  73    -4.5153941165059e-07
  74    -1.8456178678228e-05
  75    7.4180631898646e-07
  76    5.7391863829955e-05
  77    -7.5767879731188e-05
  78    4.5190246659414e-05
  79    -4.6258941418119e-05
  80    -2.2370009991942e-05
  81    -6.6037239292797e-05
  82    -0.0001321523265693
  83    0.00039791354287021
  84    -2.2525156850536e-05
  85    -3.7513447478307e-05
  86    2.6574637851344e-06
  87    4.8192558228019e-05
  88    0.0001170814659094
  89    -3.1423029582324e-05
  90    1.051437588785e-05
  91    -2.3658535737402e-07
  92    -7.1373498590938e-06
  93    -1.0099097868866e-05
  94    -1.4124164404186e-06
 Sym= A
 Ene=               5
 Spin= Alpha
 Occup=    1.00000
   1    -0.00019390708236771
   2    0.00030885692829026
   3    0.0037755006873009
   4    -0.00042236203147229
   5    0.00075969889688904
   6    -0.00067941386110649
   7    0.00027776226339323
   8    0.00095025213854687
   9    -0.0013816252681803
  10    -2.6174957503817e-06
  11    5.4878518687707e-05
  12    -9.9467406627353e-05
  13    -3.9519653809843e-05
  14    -5.1594772035008e-05
  15    7.4262740897711e-05
  16    9.3589625816575e-05
  17    -0.0017075449915974
  18    0.00012494464080421
  19    -1.1046106470511e-05
  20    -1.2262361681384e-05
  21    0.0007190318276362
  22    -0.00025910702692622
  23    0.00056920500411335
  24    1.2797006934124e-05
  25    -2.583708756419e-05
  26    -5.8476839042371e-05
  27    -3.9046536455877e-05
  28    1.8403179723419e-05
  29    5.8015346970059e-05
  30    -7.5120010952564e-05
  31    -4.5148732566581e-05
  32    4.1626819073239e-05
  33    -3.0150904715429e-05
  34    -1.8573037605983e-05
  35    -3.0629563369948e-05
  36    0.00021787774120701
  37    -2.1227713852986e-05
  38    4.4519514491193e-06
  39    1.1072056490823e-05
  40    -1.4176080327379e-05
  41    9.4870176323769e-05
  42    -2.4097410747107e-05
  43    -4.3706949610177e-06
  44    -4.7485604235136e-06
  45    -4.1888903586821e-06
  46    -1.8140442806513e-05
  47    -5.9484793091886e-08
  48    -6.6077211963705e-05
  49    -0.00013250325086229
  50    0.00039751674751898
  51    2.3222638912851e-05
  52    3.7318518334565e-05
  53    -3.732632951688e-06
  54    -4.8082598879246e-05
  55    -0.00012063318618734
  56    -1.0691901890652e-05
  57    8.1681463858946e-06
  58    5.3602456273988e-07
  59    8.1091240974274e-06
  60    -1.1367598721232e-05
  61    -1.4012110891951e-06
  62       1.0010243907415
  63    0.00057565673251296
  64    -0.0060309810485534
  65    0.0007504690109258
  66    -0.0018417358213123
  67    0.0015799923451574
  68    -0.0002350142030343
  69    0.00041273005810159
  70    -0.00028959770639636
  71    -1.5716780847656e-05
  72    -5.2394065282831e-05
  73    8.9398726199323e-05
  74    5.6567024572646e-05
  75    5.2224631216232e-05
  76    -0.00023872105305128
  77    -5.0449053768488e-05
  78    1.125064057127e-07
  79    -0.0001069228441217
  80    0.00012033684868855
  81    0.00010513648182453
  82    0.00017522393887017
  83    -0.00075527743741474
  84    -3.5435927076179e-06
  85    -4.7767926580235e-05
  86    -3.5939030376619e-05
  87    -4.787928217612e-05
  88    -0.00040326878026736
  89    0.0002115579158726
  90    1.6984311957411e-05
  91    1.3009625546198e-05
  92    6.2948034194259e-06
  93    1.6572894171761e-05
  94    -1.0095020660489e-05
 Sym= A
 Ene=               6
 Spin= Alpha
 Occup=    1.00000
   1    -0.0026353329705131
   2    -0.00015593807738139
   3      0.02961269783418
   4    0.0020937381212878
   5    -0.0028296049442431
   6    -0.002378683164421
   7     0.043313845721634
   8      0.02026344595604
   9    -0.012421724938175
  10     0.017671467005383
  11    -0.006103859690422
  12     0.021506043812808
  13     -0.01513711259556
  14    -0.028730394353146
  15    -0.001435297275221
  16    -0.027920326533565
  17    -0.076422978164361
  18     0.047980122056309
  19    0.0029049334561565
  20    0.0051120123690232
  21     0.046270812055909
  22    -0.014855748666149
  23    -0.0016107168124631
  24    -5.8191856998082e-05
  25    -0.0021661078538992
  26    9.9288176422079e-05
  27    -0.0012515610635955
  28    -0.0018025155503751
  29    0.0084275844459658
  30     0.011088313700575
  31     0.000841273086316
  32    0.0014064985348777
  33    -0.0010315218506053
  34    -0.0010896831437265
  35    -0.0069848348625872
  36    -0.0055855486708845
  37     0.012847977264982
  38    0.0014029072740961
  39    0.00063265982534674
  40    0.0011545303110752
  41    -0.00078178752815954
  42    -0.002958160836963
  43    -0.00068525269227586
  44    0.00067776070395162
  45    -0.00032285302619448
  46    0.0015397687032359
  47    0.0012386479564533
  48    3.0584628085065e-05
  49    0.0028158714917846
  50    0.0092404641035576
  51    -0.008287174660319
  52    -0.0039903896408063
  53    0.0028345761252366
  54    -0.0081748794910008
  55    -0.0036758375257182
  56    0.0044999589580789
  57    0.0003799910083531
  58     0.000355703804824
  59    -0.00023709719368416
  60    -0.00051979407837853
  61    -0.00067673116083089
  62    0.00080269357085079
  63    0.00012129992782621
  64    -0.010734746881129
  65    -0.004355184492218
  66     0.002091365684401
  67    0.0011928152292436
  68    -0.0069068690829068
  69    0.0012562765239748
  70    -0.0018240913849423
  71    0.00037609041317348
  72    -0.00021113622866588
  73    0.00043394385500563
  74    -0.000362943310389
  75    -0.00036373722635962
  76     0.050961685714975
  77     0.048580118807391
  78    -0.0020053762788666
  79    -0.0033593757042664
  80    0.00013234098025925
  81    -0.00092667316878737
  82    -0.0056575221550755
  83    0.0046427815183207
  84      0.55213383948824
  85    -0.041689543091757
  86     -0.37808665715404
  87      0.38152647784252
  88    -0.025874214681787
  89     -0.25995076511327
  90    -0.0050691979347176
  91    0.0016148973184707
  92    -0.0072105954082218
  93    0.0043971434451052
  94     0.010258303285653
 Sym= A
 Ene=               7
 Spin= Alpha
 Occup=    1.00000
   1    -0.0024655725311406
   2    -0.00069899212043975
   3     0.023780731219585
   4    0.0016738868088195
   5    0.0012533287293742
   6    -0.0024996247736144
   7     0.040506538331632
   8    -0.022682122731537
   9    -0.005187827925583
  10     0.028182252376326
  11    -0.015448959517937
  12    -0.011407708624114
  13    -0.0093455488713566
  14     0.025001567768779
  15    -0.0018366458344655
  16    -0.027823937560483
  17    -0.072975077041901
  18     0.049015914687808
  19     -0.00149998571822
  20    0.0061549683908086
  21      0.04216911744308
  22     0.014253283596654
  23    -0.013390975494861
  24    0.00092305370919632
  25    -0.0020052733481751
  26    -0.00039284203559436
  27    -0.00098789636651807
  28     0.001306896390749
  29     0.013026826722461
  30     0.019349760524429
  31    0.0010671432426261
  32    -0.00098367280435346
  33    -0.0014038387889705
  34    0.00034156249539389
  35    0.0024628703603806
  36    0.0048780445352503
  37    -0.0064267087536146
  38    0.0018038799079177
  39    0.0030792555935034
  40    -0.0071588918203437
  41    0.0010352695621779
  42    0.0049743906111677
  43    0.00041804179074931
  44    0.00045007304700903
  45    0.00019897642949402
  46    -0.0003911378794711
  47    0.00063934749956551
  48    -0.00052552911830493
  49    -0.0056192372538245
  50    -0.0090182182826053
  51     0.010613242698726
  52     0.001775117472098
  53    0.0034813436804155
  54    0.00084288380646299
  55     0.003422696406127
  56    -0.00057448046351908
  57    -0.00034543562923043
  58    0.0011879916886662
  59    0.00026163971837418
  60    0.0013924315158781
  61    -0.00079573430882758
  62    -0.00099770258283409
  63    -0.0040041301370285
  64     0.006397834393549
  65      0.55239493210068
  66    -0.086127806369146
  67     -0.36902788232542
  68      0.38198457152449
  69    -0.062095553351493
  70     -0.25325521660533
  71     -0.00853701129565
  72    0.0048925041499065
  73    0.0042721267920184
  74     0.002401159000703
  75    -0.0091732205489778
  76     0.051740361556846
  77     0.049222487344648
  78    -0.0019423446236376
  79    0.0030938127914367
  80    -0.0010886263296984
  81    0.00083281469558942
  82    0.00024435876355218
  83    -0.010537406440496
  84    -0.0041947615708316
  85    -0.0014550049524951
  86     0.002096433705002
  87    -0.0069352895703351
  88    -0.001711330592158
  89    -0.00096056449596726
  90    0.00061111332943426
  91    -0.00035508733675518
  92    -0.00022874793946857
  93    -0.0002335902341076
  94    0.0002735578342747
 Sym= A
 Ene=               8
 Spin= Alpha
 Occup=    1.00000
   1    0.0018376823509517
   2     0.027838273474433
   3     0.073000404151571
   4     0.049039516464655
   5    -0.0025473786251988
   6    -0.0058020013674459
   7     0.042193419320943
   8     0.016360888148891
   9      0.01071681305832
  10    -0.00079046177497697
  11    -0.0017495328549318
  12    -0.00047350583281632
  13    0.0010645074013204
  14    -0.0016358360324193
  15    0.0024673211394118
  16    0.00071668270698166
  17    -0.023778898434295
  18    0.0016939998583429
  19    0.0017004918097433
  20    0.0022214086459303
  21     0.040530112671049
  22    -0.021393313244839
  23    0.0090179004585249
  24    -0.023748111858901
  25    -0.010889017233672
  26    -0.017453308243679
  27     0.011921203288036
  28    -0.027316711128063
  29    -0.051713817331358
  30    -0.049201848436552
  31    -0.0019417607985892
  32    0.0032344761568398