[Molden Format]
made by pyscf v[2.0.1]
[Atoms] (AU)
C   1   6     0.00000000000000     0.00000000000000     0.00000000000000
C   2   6     2.85272299873892     0.00000000000000     0.00000000000000
H   3   1     3.62066923017674     0.00000000000000     1.90331545357504
F   4   9     3.65943188126013    -2.04308229183900    -1.24074875274501
F   5   9     3.65943188126013     2.04308229183900    -1.24074875274501
F   6   9    -0.80670888252121     1.14898679038220    -2.09606108551054
H   7   1    -0.76794623143782     0.95165772678752     1.64831953421149
F   8   9    -0.80670888252121    -2.38973554312721    -0.05297879367154
[GTO]
1 0
 s    8 1.00
                  6665  0.00069158396281299
                  1000  0.0053257961529341
                   228   0.027060721042034
                 64.71    0.10165684614077
                 21.06     0.2745748236174
                 7.495    0.44829431892377
                 2.797    0.28490261071525
                0.5215   0.015194859206082
 s    8 1.00
                  6665  -0.00029326965268655
                  1000  -0.0023180354739745
                   228  -0.011499786038565
                 64.71  -0.046826727009787
                 21.06   -0.12846616875047
                 7.495   -0.30126627246289
                 2.797   -0.25563070233011
                0.5215      1.093793361012
 s    1 1.00
                0.1596                   1
 p    3 1.00
                 9.439   0.056979251590039
                 2.002    0.31320721150073
                0.5456    0.76037674173753
 p    1 1.00
                0.1517                   1
 d    1 1.00
                  0.55                   1

2 0
 s    8 1.00
                  6665  0.00069158396281299
                  1000  0.0053257961529341
                   228   0.027060721042034
                 64.71    0.10165684614077
                 21.06     0.2745748236174
                 7.495    0.44829431892377
                 2.797    0.28490261071525
                0.5215   0.015194859206082
 s    8 1.00
                  6665  -0.00029326965268655
                  1000  -0.0023180354739745
                   228  -0.011499786038565
                 64.71  -0.046826727009787
                 21.06   -0.12846616875047
                 7.495   -0.30126627246289
                 2.797   -0.25563070233011
                0.5215      1.093793361012
 s    1 1.00
                0.1596                   1
 p    3 1.00
                 9.439   0.056979251590039
                 2.002    0.31320721150073
                0.5456    0.76037674173753
 p    1 1.00
                0.1517                   1
 d    1 1.00
                  0.55                   1

3 0
 s    3 1.00
                 13.01   0.033498726389998
                 1.962    0.23480080117413
                0.4446     0.8136829578829
 s    1 1.00
                 0.122                   1
 p    1 1.00
                 0.727                   1

4 0
 s    8 1.00
                 14710  0.00072067370873197
                  2207  0.0055504869689163
                 502.8   0.028254207662589
                 142.6    0.10639582836653
                 46.47    0.28668420124307
                  16.7    0.44843796582416
                 6.356    0.26464118141135
                 1.316   0.015326060993048
 s    8 1.00
                 14710  -0.00032119389049893
                  2207  -0.0025461915683188
                 502.8  -0.012643359507821
                 142.6   -0.05195749170489
                 46.47   -0.14344713812646
                  16.7   -0.33243762329603
                 6.356   -0.21865906750347
                 1.316     1.0955904138622
 s    1 1.00
                0.3897                   1
 p    3 1.00
                 22.67   0.064834021493887
                 4.977    0.34053535983101
                 1.347    0.73464640679382
 p    1 1.00
                0.3471                   1
 d    1 1.00
                  1.64                   1

5 0
 s    8 1.00
                 14710  0.00072067370873197
                  2207  0.0055504869689163
                 502.8   0.028254207662589
                 142.6    0.10639582836653
                 46.47    0.28668420124307
                  16.7    0.44843796582416
                 6.356    0.26464118141135
                 1.316   0.015326060993048
 s    8 1.00
                 14710  -0.00032119389049893
                  2207  -0.0025461915683188
                 502.8  -0.012643359507821
                 142.6   -0.05195749170489
                 46.47   -0.14344713812646
                  16.7   -0.33243762329603
                 6.356   -0.21865906750347
                 1.316     1.0955904138622
 s    1 1.00
                0.3897                   1
 p    3 1.00
                 22.67   0.064834021493887
                 4.977    0.34053535983101
                 1.347    0.73464640679382
 p    1 1.00
                0.3471                   1
 d    1 1.00
                  1.64                   1

6 0
 s    8 1.00
                 14710  0.00072067370873197
                  2207  0.0055504869689163
                 502.8   0.028254207662589
                 142.6    0.10639582836653
                 46.47    0.28668420124307
                  16.7    0.44843796582416
                 6.356    0.26464118141135
                 1.316   0.015326060993048
 s    8 1.00
                 14710  -0.00032119389049893
                  2207  -0.0025461915683188
                 502.8  -0.012643359507821
                 142.6   -0.05195749170489
                 46.47   -0.14344713812646
                  16.7   -0.33243762329603
                 6.356   -0.21865906750347
                 1.316     1.0955904138622
 s    1 1.00
                0.3897                   1
 p    3 1.00
                 22.67   0.064834021493887
                 4.977    0.34053535983101
                 1.347    0.73464640679382
 p    1 1.00
                0.3471                   1
 d    1 1.00
                  1.64                   1

7 0
 s    3 1.00
                 13.01   0.033498726389998
                 1.962    0.23480080117413
                0.4446     0.8136829578829
 s    1 1.00
                 0.122                   1
 p    1 1.00
                 0.727                   1

8 0
 s    8 1.00
                 14710  0.00072067370873197
                  2207  0.0055504869689163
                 502.8   0.028254207662589
                 142.6    0.10639582836653
                 46.47    0.28668420124307
                  16.7    0.44843796582416
                 6.356    0.26464118141135
                 1.316   0.015326060993048
 s    8 1.00
                 14710  -0.00032119389049893
                  2207  -0.0025461915683188
                 502.8  -0.012643359507821
                 142.6   -0.05195749170489
                 46.47   -0.14344713812646
                  16.7   -0.33243762329603
                 6.356   -0.21865906750347
                 1.316     1.0955904138622
 s    1 1.00
                0.3897                   1
 p    3 1.00
                 22.67   0.064834021493887
                 4.977    0.34053535983101
                 1.347    0.73464640679382
 p    1 1.00
                0.3471                   1
 d    1 1.00
                  1.64                   1

[5d]
[7f]
[9g]

[MO]
 Sym= A
 Ene=               0
 Spin= Alpha
 Occup=    1.00000
   1       1.0019086351759
   2    0.0042205139642243
   3    -0.0073222963686588
   4    -0.00057492531532149
   5    -0.00052400469933766
   6    -0.00084590421701557
   7    -0.0015275756454136
   8    -0.00027262841666438
   9    -0.00041130754367248
  10    2.5867320112059e-05
  11    8.3104273531082e-05
  12    -0.00017547596096057
  13    -0.00026392692483774
  14    5.7138463999025e-05
  15    -0.00023844238244854
  16    9.2945328698586e-06
  17     0.003340762853929
  18    -0.00048822092267475
  19    5.7639703007824e-06
  20    -3.7804800826894e-07
  21    -0.0014489743635323
  22    -1.0362304960115e-05
  23    -9.6154118684863e-05
  24    -5.1961484010177e-05
  25    -0.00012330546307567
  26    1.7373589899159e-05
  27    4.965983925695e-05
  28    -5.6717972524522e-05
  29    -7.1100397354625e-05
  30    0.00015477721832804
  31    -6.582424606699e-05
  32    -1.8167125534083e-06
  33    -6.8662830450694e-05
  34    -7.8664959651387e-07
  35    1.4680467363725e-05
  36    -0.00018872630540701
  37    -2.5637835533163e-05
  38    1.665707977303e-05
  39    6.7575137149127e-06
  40    -9.085006159808e-05
  41    -9.8285307299402e-05
  42    -4.3930091469018e-05
  43    -1.5342394840296e-05
  44    -1.0845679968299e-05
  45    3.3740129816556e-07
  46    3.4920732197823e-05
  47    -1.4804245672002e-05
  48    -1.591513592678e-05
  49    -1.6725629946754e-05
  50    -0.00010104789521347
  51    -8.0494524874999e-06
  52    -1.6328738033349e-05
  53    3.3408709846508e-06
  54    -0.00010886505425678
  55    7.2773794880534e-05
  56    -2.5530283386974e-05
  57    -1.6261820914427e-05
  58    -9.6362630279689e-06
  59    -9.3590187411701e-06
  60    3.0131856133426e-05
  61    1.4661738368007e-05
  62    0.00013580873837954
  63    0.00063673596061695
  64    -2.0098321046784e-05
  65    8.1894428272161e-05
  66    -0.00018798936947458
  67    0.00028342983696069
  68    -0.00014678519342613
  69    0.00041282753066867
  70    -0.0007184607464257
  71    -7.4749004541814e-05
  72    -5.7067256299356e-05
  73    0.00011723145442453
  74    1.2913598843591e-05
  75    4.4583249088923e-05
  76    0.0008674352031216
  77      0.00149295777458
  78    0.00020668494903587
  79    -5.9109768575199e-06
  80    -2.5204970284594e-05
  81    0.00014496199477799
  82    0.00065518144046348
  83    -7.6336567401768e-05
  84    8.0255187891209e-05
  85    0.00033847943726552
  86    -2.0448515388008e-05
  87    -0.00015133597409607
  88    -0.00085684918256624
  89    -4.0085091348521e-06
  90    9.1866732595949e-05
  91    1.0279915443634e-05
  92     7.86425591192e-06
  93    0.00011277199631006
  94    -7.4845080381891e-05
 Sym= A
 Ene=               1
 Spin= Alpha
 Occup=    1.00000
   1    -0.00023844345777958
   2    9.3159270293077e-06
   3    0.0033407669601152
   4    0.00048825402930031
   5    -5.1870586438643e-06
   6    2.562786124486e-06
   7    0.0014489783322588
   8    -3.9104479600386e-05
   9    -8.8449148024749e-05
  10    -3.0199940829163e-05
  11    0.00013514764595814
  12    -2.6154258141442e-05
  13    6.2227841428802e-05
  14    1.2532893700384e-05
  15       1.0019086342241
  16    0.0042205238633168
  17    -0.0073222600891417
  18    0.00057488363861409
  19    3.0828925701816e-05
  20    -0.00099451418368774
  21    0.0015275592431628
  22    3.0446863594124e-05
  23    -0.00049250431823936
  24    -5.8297244951434e-05
  25    -0.00010053422249355
  26    -7.1421156110011e-06
  27    -0.00031251275637274
  28    7.9295895981444e-06
  29    0.00086747477094977
  30    0.0014929684977577
  31    -0.00020668765115705
  32    -7.4839347197676e-06
  33    -2.4785357645281e-05
  34    0.0001358094397254
  35    0.00063672297996076
  36    -2.0115732964478e-05
  37    -8.1903179003205e-05
  38    0.00030448355955901
  39    0.00015146144470566
  40    0.00014678187419813
  41    -0.0007167720602584
  42    -0.00041579438061818
  43    3.8410578031565e-05
  44    2.7129697536806e-05
  45    -0.00010908617259933
  46    7.8247235531725e-05
  47    6.714400400662e-05
  48    0.00014496322445465
  49    0.0006551488941166
  50    -7.636975945571e-05
  51    -8.0243432659672e-05
  52    -0.00030330202832097
  53    0.00015150061482583
  54    0.00015134550765087
  55    0.0007400824115101
  56    -0.00043191720308423
  57    3.8899847704777e-05
  58    2.8520274637111e-05
  59    0.00011380132014632
  60    8.2192821989528e-05
  61    -6.9958712476159e-05
  62    -7.8668958997006e-07
  63     1.46777056865e-05
  64    -0.00018872765783663
  65    2.561655261417e-05
  66    -1.1043992876307e-05
  67    1.4179249721856e-05
  68    9.0833951977352e-05
  69    6.3154240398598e-05
  70    -8.7188076178674e-05
  71    -1.6896661478509e-05
  72    1.6794612121164e-05
  73    3.4457898636659e-06
  74    3.4023443572665e-05
  75    -7.3979434223696e-06
  76    -7.1101294672038e-05
  77    0.00015477027503886
  78    6.5825267014073e-05
  79    -3.2758655342696e-05
  80    -6.0372690131345e-05
  81    -1.5915250242996e-05
  82    -1.672304905626e-05
  83    -0.00010104769710671
  84    8.047926790418e-06
  85    1.5813649776554e-05
  86    -5.2673290885638e-06
  87    0.00010886148526043
  88    -7.5788007526446e-05
  89    1.4278699426477e-05
  90    -2.3706850914146e-05
  91    1.0144963770716e-06
  92    5.5307710592435e-06
  93    2.5833653567838e-05
  94    1.7516079477223e-05
 Sym= A
 Ene=               2
 Spin= Alpha
 Occup=    1.00000
   1    5.2877764037863e-05
   2    5.6365174016966e-05
   3    -0.0015053089459705
   4    -0.00012328295910622
   5    -5.4413843482457e-07
   6    -1.8941257699821e-05
   7    -0.00077300167106035
   8    -0.00018053986443127
   9    0.00048874039115068
  10    1.754325142389e-05
  11    3.8065821335684e-05
  12    -5.6365818659291e-05
  13    -6.2384279320553e-05
  14    -1.9852596672788e-06
  15    -0.00019204523835414
  16    0.0002826409910868
  17     0.003711306249039
  18    0.00040143885401085
  19    0.0008187062431776
  20    -0.00051043573467486
  21    -0.00028256365299724
  22    0.0011922385883179
  23    -0.0011877120297243
  24    -3.679158181572e-05
  25    -4.0031213169461e-05
  26    -9.3851163801256e-05
  27    -5.3177802637023e-05
  28    8.0529409016313e-05
  29    -0.00023743189296479
  30    -1.3862471204986e-05
  31    -6.9883067214579e-06
  32    -0.0001329876646657
  33    9.6968301187281e-05
  34    9.7687356767947e-05
  35    0.00016286123448819
  36    -0.00070159105563125
  37    9.2371358001512e-07
  38    -3.6677428490154e-05
  39    -4.1280825789163e-05
  40    4.2931097065326e-05
  41    -0.0004137204776173
  42    0.00014510366212152
  43    1.7905499476171e-05
  44    -1.1285344975612e-05
  45    -2.2696775690059e-07
  46    1.569580304741e-05
  47    1.1738448729059e-05
  48        1.001026712483
  49    0.0007878531342337
  50    -0.0057988243413637
  51    -0.00070721052705345
  52    -0.0019407187084492
  53    0.0011923403655647
  54    0.00027905956806571
  55    0.00054371241059284
  56    -0.00026343888211101
  57    1.1380357050202e-05
  58    4.5485897054483e-05
  59    8.3905996287727e-05
  60    7.2777681803847e-05
  61    -6.127006936765e-05
  62    -3.3105185236157e-05
  63    -6.831125515858e-05
  64    0.00025640792766076
  65    -5.5310124548907e-06
  66    -7.5062404732238e-07
  67    -3.1685211374905e-05
  68    -2.9178676288715e-05
  69    -1.9800977087231e-05
  70    6.6905392728122e-05
  71    1.0456676307029e-06
  72    -4.5657443839302e-06
  73    5.2633552040664e-06
  74    -2.1864452252176e-05
  75    -2.2953319158048e-08
  76    8.613808099594e-05
  77    -0.00019156552897812
  78    1.5116342425961e-06
  79    1.3962021720314e-05
  80    -3.1794736010623e-05
  81    -2.7405740094708e-05
  82    -4.9026563551979e-05
  83    0.00016294429484237
  84    -1.1366813066012e-05
  85    6.6664393097431e-06
  86    9.9374054603041e-06
  87    0.00013921411420505
  88    4.7457940910948e-05
  89    -7.0116357682451e-05
  90    2.3717016046567e-06
  91    7.8022389016697e-08
  92    -1.4738824969399e-05
  93    -1.9918966799078e-06
  94    5.2197255697811e-07
 Sym= A
 Ene=               3
 Spin= Alpha
 Occup=    1.00000
   1    -0.00019205772552978
   2    0.00028253253708963
   3    0.0037112467753373
   4    -0.00040140501192855
   5    -0.00096406651997861
   6    -3.2720683395951e-05
   7    0.00028250431441188
   8    -0.0016263754803311
   9    -0.00043248367657233
  10    -8.1867025042697e-05
  11    -5.5955408813533e-06
  12    -3.7087100817901e-06
  13    -7.9162893387589e-05
  14    8.9793620556187e-05
  15    5.2879363868623e-05
  16    5.6402094047195e-05
  17    -0.0015051944997009
  18    0.00012321711773156
  19    -8.9907978558357e-06
  20    -1.6682350293007e-05
  21    0.00077293481673417
  22    0.00040075571210234
  23    0.00033299287415141
  24    -1.7801330280092e-05
  25    -3.1971770822624e-05
  26    1.4329916474901e-05
  27    -8.2791058244179e-05
  28    -2.0757681067043e-05
  29    8.6130588018018e-05
  30    -0.000191581072572
  31    -1.5134282396588e-06
  32    -2.7990711514166e-05
  33    -2.0553388364829e-05
  34    -3.3104307253948e-05
  35    -6.8305096361265e-05
  36    0.00025641581762367
  37    5.5159496705629e-06
  38    -1.5193576566009e-05
  39    -2.7809557674915e-05
  40    2.9177425720887e-05
  41    5.0599520450667e-05
  42    4.8048665693606e-05
  43    9.3354859623492e-06
  44    3.9656917846395e-06
  45    -1.1314717938963e-05
  46    -1.7080087556843e-05
  47    2.261405077505e-06
  48    -2.7405278278736e-05
  49    -4.9032236101166e-05
  50    0.00016291957174474
  51    1.138545491163e-05
  52    -7.9606425284091e-07
  53    1.1929858180417e-05
  54    -0.00013919515324671
  55    -7.61503966663e-05
  56    -3.700452236932e-05
  57    -9.1411128183378e-06
  58    -3.2919126031757e-07
  59    8.2858959071323e-06
  60    -8.6376882904778e-06
  61    4.1412004700342e-07
  62     9.76876563023e-05
  63    0.00016287079268999
  64    -0.00070159127129829
  65    -9.2628543108046e-07
  66    1.1099295622516e-05
  67    -5.4084663481927e-05
  68    -4.2931567469445e-05
  69    0.00043083142877114
  70    -8.1195164147104e-05
  71    7.6229772447133e-06
  72    3.9050861447349e-06
  73    2.033983110444e-05
  74    9.7602260803238e-06
  75    1.5809477801788e-05
  76    -0.0002374879525651
  77    -1.3882177201321e-05
  78    6.9933496197096e-06
  79    0.00016366416404044
  80    1.748196155521e-05
  81       1.0010267142547
  82    0.00078854610459804
  83    -0.0057980233211751
  84    0.00070622784020707
  85    0.0022766639348097
  86    6.2403610089645e-05
  87    -0.00027973550761098
  88    -0.00060273202664072
  89    4.3828669837955e-05
  90    5.4292798010474e-05
  91    -8.7570627969345e-06
  92    -1.9018608662051e-06
  93    9.7547360764114e-05
  94    -7.5826929273662e-05
 Sym= A
 Ene=               4
 Spin= Alpha
 Occup=    1.00000
   1    -0.00018469464740188
   2    0.00028910424179157
   3    0.0034484911936712
   4    -0.00041465911360357
   5     0.000456134281431
   6    -0.00084592520208857
   7    0.00014415324517568
   8    0.00043113929707782
   9    -0.0016000082947114
  10    5.7059794170633e-05
  11    8.2995762846091e-05
  12    -9.4196731370238e-05
  13    -1.0092838263222e-05
  14    -2.5857093396321e-05
  15    5.1348954252567e-05
  16    6.0346575862836e-05
  17    -0.0013831189022347
  18    0.00014701408588052
  19    -1.6332211676643e-05
  20    -5.442192795832e-06
  21    0.00047652197696361
  22    -9.1330935012854e-05
  23    0.00047555751579401
  24    4.6614167650142e-05
  25    -1.9970746683262e-05
  26    -4.8909146693076e-05
  27    -3.2078419366348e-05
  28    1.2564054418967e-05
  29    2.7502635338762e-05
  30    3.765993162206e-05
  31    -3.6357428357945e-05
  32    2.364588776433e-05
  33    -2.5155184963118e-05
  34    1.5403902111154e-06
  35    6.6644051015045e-06
  36    0.00013758494898384
  37    -4.0060041086387e-05
  38    1.655416084299e-06
  39    2.0824759251106e-06
  40    9.9946716559444e-05
  41    6.1187280349733e-05
  42    7.2683267540235e-06
  43    5.3685231728243e-06
  44    -4.8558550126338e-06
  45    -6.6189146732217e-07
  46    -1.9338440328433e-05
  47    7.1607470560548e-06
  48    -3.2394730430873e-05
  49    -6.6802989256162e-05
  50    0.00022865682676938
  51    6.5624732476123e-06
  52    3.608529474704e-05
  53    8.0376919967067e-06
  54    3.4025501928691e-05
  55    -0.00010824032170969
  56    -2.9762827190281e-05
  57    1.1101367263387e-05
  58    5.8680392646165e-07
  59    3.8309246812699e-06
  60    -1.3985993871371e-05
  61    -6.5886522479623e-06
  62       1.0010236924334
  63    0.00081163402002775
  64    -0.0057355167967746
  65    0.00070230675779498
  66    -0.001090883752729
  67    0.0019730928901255
  68    -0.00027309248102266
  69    0.00036114840298029
  70    -0.00049742712394081
  71    -7.0014567540044e-05
  72    -6.8246782654065e-05
  73    8.336865157142e-05
  74    2.358336507609e-05
  75    3.3358708032525e-05
  76    -0.00021486230446211
  77    -5.7755228683788e-05
  78    3.8925408580395e-06
  79    -6.390285527643e-05
  80    0.00014634488340813
  81    0.00010145637796116
  82    0.00016961109011765
  83    -0.00072423151237524
  84    -4.4068167775543e-06
  85    -5.3518561656456e-05
  86    -1.7555100478939e-05
  87    -4.0886977509611e-05
  88    -0.0002928214329378
  89    0.00033225850208569
  90    1.0272052220865e-05
  91    1.5703089525572e-05
  92    2.0170179000942e-05
  93     1.09300854843e-05
  94    -4.5716578808352e-06
 Sym= A
 Ene=               5
 Spin= Alpha
 Occup=    1.00000
   1    5.1346411446731e-05
   2    6.0321799109805e-05
   3    -0.0013831734008468
   4    -0.00014705660393763
   5    1.1429093096094e-05
   6    -1.2873807926109e-05
   7    -0.00047656166953642
   8    0.00031686710060042
   9    0.00036616917286965
  10    -6.0184269504604e-07
  11    1.1016478905319e-05
  12    4.5525753653543e-05
  13    -5.9340104776408e-05
  14    2.0869313082938e-05
  15    -0.00018470122341946
  16    0.00028904981216369
  17    0.0034484960507286
  18    0.0004146178656627
  19    -0.00081798115669059
  20    -0.0005044716193473
  21    -0.00014419715676906
  22    -0.0011734063101872
  23    -0.0011700574781282
  24    -3.2809073786107e-05
  25    -5.8925666366283e-05
  26    8.5514777358514e-05
  27    -6.2003404861503e-05
  28    -6.3863694928643e-05
  29    -0.0002148549168529
  30    -5.7738074496483e-05
  31    -3.8932259932708e-06
  32    0.00012851460090566
  33    9.478758716507e-05
  34       1.0010236922573
  35    0.00081176362437622
  36    -0.0057353536375016
  37    -0.00070286025006653
  38    0.0019307936479495
  39    0.0011634706336344
  40    0.00027270846695963
  41    -0.00056180558436265
  42    -0.00025009429014887
  43    1.366688293135e-05
  44    4.2416535293342e-05
  45    -8.3986345949026e-05
  46    7.1906940376438e-05
  47    6.300697669674e-05
  48    0.00010145585868189
  49    0.00016961859853421
  50    -0.00072419758846587
  51    4.4069565668789e-06
  52    3.7536731440553e-05
  53    -4.1956367383577e-05
  54    4.0888691089301e-05
  55    0.00041968515180262
  56    0.00014133784390678
  57    1.9181792997689e-05
  58    -1.1312762239075e-05
  59    2.3520136581212e-06
  60    1.6074726704955e-05
  61    -1.1810438396363e-05
  62    1.5407064834288e-06
  63    6.6669855047058e-06
  64    0.00013758596129797
  65    4.0065115902222e-05
  66    -3.936521367709e-07
  67    2.6341677951305e-06
  68    -9.9937177624392e-05
  69    -4.9354083126709e-05
  70    3.6890714157907e-05
  71    7.0461755932653e-06
  72    6.2446328433828e-07
  73    -4.0163903144256e-06
  74    -1.8370177494962e-05
  75    8.6295326438849e-06
  76    2.7515051805231e-05
  77    3.7673277637668e-05
  78    3.6355263395222e-05
  79    -3.3056061350512e-05
  80    -9.9635919410403e-06
  81    -3.2396085212892e-05
  82    -6.6811997831042e-05
  83    0.00022864912655447
  84    -6.5795722848883e-06
  85    -2.7232168778372e-05
  86    2.5007135937204e-05
  87    -3.4028972146472e-05
  88    7.8852062321288e-05
  89    -7.9893055678408e-05
  90    1.2839281924431e-05
  91    2.7853655811837e-06
  92    3.5475947710904e-07
  93    -1.2980711857097e-05
  94    -6.0006002318471e-06
 Sym= A
 Ene=               6
 Spin= Alpha
 Occup=    1.00000
   1    -0.0014319376301614
   2    -0.016424666713896
   3    -0.018469787153259
   4     0.015311586493042
   5    -0.015361933157065
   6      0.03248225148507
   7     0.011240343492028
   8    -0.019276574940273
   9     0.046202522343411
  10    0.0027314980313933
  11    -0.0070526521073457
  12     -0.03575317286451
  13    -0.013619344288406
  14    -0.016798430084955
  15    -0.0024868193950839
  16    -0.018726064205509
  17    -0.015633961682974
  18     0.021168537063399
  19    -0.002218673905433
  20    -0.0035931445707117
  21    0.0045496320081968
  22    -0.014825984103468
  23    -0.013689861192653
  24    -0.00076355971148105
  25    -0.001514626757927
  26    -0.0010938815856533
  27    -0.0017149329742471
  28    -0.00016519338944047
  29    -0.0050138669771545
  30     0.010886799912728
  31     0.001470173388176
  32    0.00046824852123652
  33    -0.00022266037298756
  34    0.00093605888124432
  35    0.00059322432194489
  36    -0.010618027891413
  37    0.00090984449340663
  38    0.0018443132230345
  39    -0.0054157674277171
  40    0.0010492795885822
  41    -0.0013493430258445
  42    -0.0034989385697381
  43    6.9170684446963e-06
  44    -0.00030765084040121
  45    -0.00035058228017559
  46    0.00013046496739941
  47    0.00055774482511576
  48    -0.00081256790368589
  49    0.0015794946249679
  50     0.011203171414357
  51    -0.0064628617919999
  52    -0.0054130609928888
  53    0.0050982569070647
  54    -0.0087312764732101
  55    -0.0039854610017186
  56    0.0066009298263642
  57    2.6672137682052e-05
  58    0.0001579088037935
  59    -0.00018287743150864
  60    -0.00024929641531301
  61    -0.00011388554689891
  62    -0.0018126923489383
  63     0.013699806487819
  64     0.051025099667821
  65    0.0062114984011863
  66    -0.033372668645365
  67     0.032220130055691
  68    0.0064248043223491
  69    -0.031340106636651
  70     0.029455505425321
  71    0.00016521544017276
  72    -0.00030179093458282
  73    -0.00048286754853178
  74    0.00035387248067264
  75    -0.00065968907405036
  76    -0.022486359778598
  77    -0.019572192098032
  78    0.0005447156583338
  79    0.0010268826770027
  80    -0.00092359807855877
  81    -0.00060700607785771
  82    -0.0056270710484988
  83    -0.0032471747680354
  84      0.31942157080318
  85     -0.12461761918152
  86      0.56727829640746
  87      0.22186618873436
  88    -0.084234647701939
  89      0.39145174724544
  90    0.0011717854189956
  91    0.0051791238504578
  92     0.011869398563385
  93    0.0052192768609126
  94    0.0059323592945723
 Sym= A
 Ene=               7
 Spin= Alpha
 Occup=    1.00000
   1     0.001773852864219
   2     0.029217680388881
   3     0.073581943400916
   4     0.046638669008325
   5    0.00095859759831777
   6    -0.004764287974837
   7     0.046063415055642
   8    -0.017621083695651
   9    0.00087201586407421
  10    0.00045869365668408
  11    -0.0026506384125747
  12    0.00073137175171084
  13    0.0017529779659819
  14    0.00058280993615112
  15     0.002694438762411
  16    0.00047643989443998
  17    -0.029456671870273
  18     0.001712142131096
  19    -0.0017932945981918
  20    0.0027811498144122
  21     0.042349115957923
  22     0.022480156714967
  23    0.0077050839595606
  24    -0.023666921361188
  25    -0.011025610459996
  26     0.017764205347973
  27     0.011245721830114
  28     0.026785743455029
  29    -0.050675097591795
  30    -0.048190100975304
  31    -0.0020082853738888
  32    -0.0033545077666003
  33    0.00043141004244897
  34    -0.00071884745964859
  35    1.264408338796e-05
  36     0.010108050730272
  37    -0.004070008411365
  38    0.0020625207455873
  39    -0.001280139373998
  40    -0.0062180856940861
  41    0.0014406373908179
  42    0.0017064546359806
  43    -0.00050368536893185
  44    -0.00023969181784286
  45    0.00033947533217893
  46    0.00033544305190874
  47    0.00032934880267133
  48    0.0011295153657309
  49    0.0057231831221642
  50    -0.0055488441106206
  51      0.54871690501011
  52     0.027664591313858
  53      0.38405920649584
  54      0.37987147414371
  55      0.02147574918745
  56      0.26345974068692
  57      0.00728470466555
  58    0.0033219090650733
  59    -0.0060146126901696
  60    -0.0032917678469723
  61    -0.009664966960665
  62    0.0013806644618645
  63    0.0068180591369012
  64    0.0016633473011741
  65     0.011366053967441
  66    0.0046834821237759
  67    0.00083986124835406
  68    -0.0012956280454797
  69    0.0031757088015742
  70     0.003756261056184
  71    0.0010154422406258
  72    0.00069326281990256
  73    -0.00028491395530533
  74    -0.0010189005628907
  75    -0.0011646488985915
  76    -0.0029387607483439
  77    -0.0046278963062617
  78    0.00080626178001177
  79    0.0016413513372344
  80    -0.00036237751423377
  81    0.00040335055431136
  82    -0.0025598086525761
  83     -0.01291660978538
  84    -0.0087802977790386
  85    -0.0065427637636046
  86    0.00021256073625109
  87    -0.0085964517145655
  88    -0.0072646226122604
  89    -0.0005398773114932
  90    -0.00015332496429071
  91    -8.1060122856991e-05
  92    -0.00010910723086965
  93    0.00064828843718021
  94    0.00074996141390732
 Sym= A
 Ene=               8
 Spin= Alpha
 Occup=    1.00000
   1    0.0024869981585428
   2     0.028057836489889
   3     0.066916294611021
   4     0.049379882934874
   5    -0.0028448692787523
   6    -0.0061531870255503
   7     0.037845279436677
   8      0.02181610198352
   9      0.01333644258183
  10    -0.0012855935383148
  11    -0.0012426522729147
  12    -0.0012688795793112
  13    0.0012821631018184
  14    -0.001159101487698
  15    0.0022655849042451
  16    0.0014239880573535
  17    -0.016959381164613
  18    0.00077968282415376
  19    0.00025331983083351
  20    0.0017545191167879
  21     0.036480508847346
  22    -0.020595396360398
  23    0.0089999256147383
  24    -0.024081299589552
  25    -0.010650386597297
  26    -0.017659238042359
  27     0.011622667097958
  28    -0.026949052782089
  29    -0.052390944543655
  30    -0.049732285286962
  31    -0.0018787903453548
  32    0.0030994409115074
  33    0.00058405599042549