[Molden Format]
made by pyscf v[2.0.1]
[Atoms] (AU)
C   1   6     0.00000000000000     0.00000000000000     0.00000000000000
C   2   6     2.85272299873892     0.00000000000000     0.00000000000000
H   3   1     3.62066923017674     0.00000000000000     1.90331545357504
F   4   9     3.65943188126013    -2.04308229183900    -1.24074875274501
F   5   9     3.65943188126013     2.04308229183900    -1.24074875274501
F   6   9    -0.80670888252121    -2.38973554312721     0.05297879367154
H   7   1    -0.76794623143782     0.95165772678752    -1.64831953421149
F   8   9    -0.80670888252121     1.14898679038220     2.09606108551054
[GTO]
1 0
 s    8 1.00
                  6665  0.00069158396281299
                  1000  0.0053257961529341
                   228   0.027060721042034
                 64.71    0.10165684614077
                 21.06     0.2745748236174
                 7.495    0.44829431892377
                 2.797    0.28490261071525
                0.5215   0.015194859206082
 s    8 1.00
                  6665  -0.00029326965268655
                  1000  -0.0023180354739745
                   228  -0.011499786038565
                 64.71  -0.046826727009787
                 21.06   -0.12846616875047
                 7.495   -0.30126627246289
                 2.797   -0.25563070233011
                0.5215      1.093793361012
 s    1 1.00
                0.1596                   1
 p    3 1.00
                 9.439   0.056979251590039
                 2.002    0.31320721150073
                0.5456    0.76037674173753
 p    1 1.00
                0.1517                   1
 d    1 1.00
                  0.55                   1

2 0
 s    8 1.00
                  6665  0.00069158396281299
                  1000  0.0053257961529341
                   228   0.027060721042034
                 64.71    0.10165684614077
                 21.06     0.2745748236174
                 7.495    0.44829431892377
                 2.797    0.28490261071525
                0.5215   0.015194859206082
 s    8 1.00
                  6665  -0.00029326965268655
                  1000  -0.0023180354739745
                   228  -0.011499786038565
                 64.71  -0.046826727009787
                 21.06   -0.12846616875047
                 7.495   -0.30126627246289
                 2.797   -0.25563070233011
                0.5215      1.093793361012
 s    1 1.00
                0.1596                   1
 p    3 1.00
                 9.439   0.056979251590039
                 2.002    0.31320721150073
                0.5456    0.76037674173753
 p    1 1.00
                0.1517                   1
 d    1 1.00
                  0.55                   1

3 0
 s    3 1.00
                 13.01   0.033498726389998
                 1.962    0.23480080117413
                0.4446     0.8136829578829
 s    1 1.00
                 0.122                   1
 p    1 1.00
                 0.727                   1

4 0
 s    8 1.00
                 14710  0.00072067370873197
                  2207  0.0055504869689163
                 502.8   0.028254207662589
                 142.6    0.10639582836653
                 46.47    0.28668420124307
                  16.7    0.44843796582416
                 6.356    0.26464118141135
                 1.316   0.015326060993048
 s    8 1.00
                 14710  -0.00032119389049893
                  2207  -0.0025461915683188
                 502.8  -0.012643359507821
                 142.6   -0.05195749170489
                 46.47   -0.14344713812646
                  16.7   -0.33243762329603
                 6.356   -0.21865906750347
                 1.316     1.0955904138622
 s    1 1.00
                0.3897                   1
 p    3 1.00
                 22.67   0.064834021493887
                 4.977    0.34053535983101
                 1.347    0.73464640679382
 p    1 1.00
                0.3471                   1
 d    1 1.00
                  1.64                   1

5 0
 s    8 1.00
                 14710  0.00072067370873197
                  2207  0.0055504869689163
                 502.8   0.028254207662589
                 142.6    0.10639582836653
                 46.47    0.28668420124307
                  16.7    0.44843796582416
                 6.356    0.26464118141135
                 1.316   0.015326060993048
 s    8 1.00
                 14710  -0.00032119389049893
                  2207  -0.0025461915683188
                 502.8  -0.012643359507821
                 142.6   -0.05195749170489
                 46.47   -0.14344713812646
                  16.7   -0.33243762329603
                 6.356   -0.21865906750347
                 1.316     1.0955904138622
 s    1 1.00
                0.3897                   1
 p    3 1.00
                 22.67   0.064834021493887
                 4.977    0.34053535983101
                 1.347    0.73464640679382
 p    1 1.00
                0.3471                   1
 d    1 1.00
                  1.64                   1

6 0
 s    8 1.00
                 14710  0.00072067370873197
                  2207  0.0055504869689163
                 502.8   0.028254207662589
                 142.6    0.10639582836653
                 46.47    0.28668420124307
                  16.7    0.44843796582416
                 6.356    0.26464118141135
                 1.316   0.015326060993048
 s    8 1.00
                 14710  -0.00032119389049893
                  2207  -0.0025461915683188
                 502.8  -0.012643359507821
                 142.6   -0.05195749170489
                 46.47   -0.14344713812646
                  16.7   -0.33243762329603
                 6.356   -0.21865906750347
                 1.316     1.0955904138622
 s    1 1.00
                0.3897                   1
 p    3 1.00
                 22.67   0.064834021493887
                 4.977    0.34053535983101
                 1.347    0.73464640679382
 p    1 1.00
                0.3471                   1
 d    1 1.00
                  1.64                   1

7 0
 s    3 1.00
                 13.01   0.033498726389998
                 1.962    0.23480080117413
                0.4446     0.8136829578829
 s    1 1.00
                 0.122                   1
 p    1 1.00
                 0.727                   1

8 0
 s    8 1.00
                 14710  0.00072067370873197
                  2207  0.0055504869689163
                 502.8   0.028254207662589
                 142.6    0.10639582836653
                 46.47    0.28668420124307
                  16.7    0.44843796582416
                 6.356    0.26464118141135
                 1.316   0.015326060993048
 s    8 1.00
                 14710  -0.00032119389049893
                  2207  -0.0025461915683188
                 502.8  -0.012643359507821
                 142.6   -0.05195749170489
                 46.47   -0.14344713812646
                  16.7   -0.33243762329603
                 6.356   -0.21865906750347
                 1.316     1.0955904138622
 s    1 1.00
                0.3897                   1
 p    3 1.00
                 22.67   0.064834021493887
                 4.977    0.34053535983101
                 1.347    0.73464640679382
 p    1 1.00
                0.3471                   1
 d    1 1.00
                  1.64                   1

[5d]
[7f]
[9g]

[MO]
 Sym= A
 Ene=               0
 Spin= Alpha
 Occup=    1.00000
   1       1.0019115236039
   2    0.0042259306615288
   3    -0.0074235554181388
   4    -0.00057740247034697
   5    -0.00052214365335286
   6    0.00099574464542979
   7    -0.0015821244280768
   8    -0.00030263343697662
   9    0.00066293744634393
  10    2.8601477816747e-05
  11    -0.00010012819377138
  12    0.0002125424683061
  13    -0.00026952664551523
  14    5.3791892256956e-05
  15    -0.00021834568485987
  16    6.0773895499893e-05
  17    0.0032129041998019
  18    -0.00047306026529462
  19    1.1719239035633e-05
  20    6.6845870345069e-06
  21    -0.0015628231716673
  22    7.7069928689041e-05
  23    -0.00043022853613418
  24    -4.672583480778e-05
  25    8.3719424992115e-05
  26    -1.6140626922668e-05
  27    7.1684292665946e-05
  28    -5.9764100239945e-05
  29    -4.599157140076e-05
  30    0.00042513915137903
  31    -9.7296473665146e-05
  32    4.6923357569603e-06
  33    -2.5443852852949e-05
  34    -1.0839278808147e-05
  35    -8.7796827671359e-06
  36    -0.00013140150160502
  37    -1.1834909067348e-05
  38    1.3879483701785e-05
  39    -3.7814309189599e-06
  40    -9.493568489245e-05
  41    -8.9728048164964e-05
  42    1.3868340248996e-05
  43    -2.0190326639088e-05
  44    -1.0875171171314e-05
  45    9.3605630141568e-06
  46    2.6981821348979e-05
  47    -1.3670728532874e-05
  48    7.6994402545655e-06
  49    2.0044759304683e-05
  50    -0.00024063327568356
  51    1.9325375446562e-06
  52    -3.7074682330889e-06
  53    -1.2670353819718e-05
  54    -2.8266812391931e-05
  55    7.2698440661161e-05
  56    4.6941653636133e-05
  57    -1.5740815475136e-05
  58    -1.0828708342123e-05
  59    -1.5302826967197e-05
  60    1.891178871933e-05
  61    7.4938402324412e-06
  62    0.00014533241789585
  63    0.00065593669280418
  64    -8.5292199318463e-05
  65    7.7212029127919e-05
  66    0.00033752423278383
  67    2.953107221104e-05
  68    -0.00013830246261476
  69    -0.00085518204632434
  70    -3.702442119989e-05
  71    9.1117894546849e-05
  72    -8.8439333606531e-06
  73    -1.1641533567968e-05
  74    0.00011245921781884
  75    -7.4369101182976e-05
  76    0.00096735305866666
  77    0.0015452885642262
  78    0.00022086415452518
  79    -4.4133007906998e-05
  80    5.6037194386118e-05
  81    0.00016202166980157
  82    0.00068892781125129
  83    -0.00018965768308522
  84    7.3184218625878e-05
  85    -0.00019190577678627
  86    -0.00027502234305707
  87    -0.00014645991945944
  88    0.00047140443678492
  89    0.00075393079038947
  90    -8.1540817696031e-05
  91    6.3513216434304e-05
  92    -0.00012840157262681
  93    1.696829338924e-05
  94    4.8107192471019e-05
 Sym= A
 Ene=               1
 Spin= Alpha
 Occup=    1.00000
   1    -0.00021834479661045
   2    6.078946829026e-05
   3    0.0032129077028432
   4    0.00047308812582728
   5     1.34917340879e-05
   6    7.4725932685628e-08
   7    0.0015628285047535
   8    -0.00014837000958167
   9    0.00041112676053314
  10    -3.2619343375547e-05
  11    0.00010238691823991
  12    1.207464654253e-05
  13    7.9831225449345e-05
  14    9.897915956931e-06
  15       1.0019115233409
  16    0.0042259277263462
  17    -0.0074235355978941
  18    0.00057736330333778
  19    4.5692564761706e-05
  20    -0.0011233785605209
  21    0.0015821120276716
  22    6.9382142154905e-05
  23    -0.00072543289686252
  24    -8.317740193244e-05
  25    -0.00011360539736881
  26    -1.1015662847129e-05
  27    -0.0003340572531454
  28    3.4798448101189e-06
  29    0.00096736411851091
  30    0.0015452902889973
  31    -0.00022086546647077
  32    -1.0201499903104e-05
  33    -7.0596007694829e-05
  34    0.00014533298077633
  35    0.00065591419805214
  36    -8.5315241805076e-05
  37    -7.7210062792757e-05
  38    0.00030702658627001
  39    0.00014317487877334
  40    0.00013830514597573
  41    -0.00075914913843597
  42    -0.00039553508319542
  43    4.1332308316218e-05
  44    2.9525612563335e-05
  45    -0.00011121516878181
  46    8.3716650908949e-05
  47    6.8828034885161e-05
  48    0.0001620224254069
  49    0.00068891575315134
  50    -0.00018967209496558
  51    -7.319142925121e-05
  52    -0.00030367554178161
  53    0.00014222167630401
  54    0.00014645657806615
  55    0.00078523365009104
  56    -0.00041722261168923
  57    4.1665026907172e-05
  58    3.0950238260391e-05
  59    0.00011800957965534
  60    8.8102187037174e-05
  61    -7.3418792293992e-05
  62    -1.0839239575307e-05
  63    -8.7802532922548e-06
  64    -0.00013140294188351
  65    1.182810106419e-05
  66    1.0128182422841e-05
  67    1.0213796922887e-05
  68    9.4929331805691e-05
  69    -7.0773323332003e-05
  70    -5.6875526187798e-05
  71    -2.5481143639732e-05
  72    -2.5827915039896e-06
  73    -1.2209432181411e-06
  74    2.392732927065e-05
  75    1.7276983729663e-05
  76    -4.5995359744004e-05
  77    0.00042513639551365
  78    9.7297154331706e-05
  79    -8.6581053956307e-06
  80    2.4381016228047e-05
  81    7.6993371478279e-06
  82    2.0045481670921e-05
  83    -0.00024063445478217
  84    -1.9334151703789e-06
  85    -9.5435406021428e-06
  86    9.1203181639266e-06
  87    2.8264292548381e-05
  88    8.6431330228091e-05
  89    -4.3028431118942e-06
  90    -2.455521832711e-06
  91    -1.3125196613078e-05
  92    1.1268010294233e-05
  93    2.6582307642794e-05
  94    -1.0756808530117e-06
 Sym= A
 Ene=               2
 Spin= Alpha
 Occup=    1.00000
   1    6.0918788984596e-05
   2    7.0834468050611e-05
   3    -0.0015496679473832
   4    -0.00012056436774057
   5    -7.5694939904068e-06
   6    -5.0843136685001e-06
   7    -0.00081333360011171
   8    0.00033107999753378
   9    0.00020818662687626
  10    -5.6026968261424e-06
  11    9.0121062527807e-06
  12    4.0934105487818e-05
  13    -7.5017107865599e-05
  14    1.7797295442911e-05
  15    -0.00019238704736681
  16    0.00028561807323316
  17    0.0037744874165978
  18    0.00039674255425952
  19    -0.00082676173781287
  20    -0.00051524500077659
  21    -0.00026226070481057
  22    -0.0012126837767147
  23    -0.0011319612067374
  24    -3.8873667594917e-05
  25    -6.8678555384026e-05
  26    8.9976252989938e-05
  27    -5.8266600074168e-05
  28    -6.5976056258482e-05
  29    -0.00022827669180616
  30    -6.604839490253e-05
  31    -1.0632550984026e-05
  32    0.00013337340056302
  33    9.5928643008678e-05
  34       1.0010290774877
  35    0.00076866033085309
  36    -0.0058380966575909
  37    -0.0007168587270435
  38    0.0019581538808957
  39    0.0011960732205023
  40    0.00027169574945484
  41    -0.00055005774476595
  42    -0.00023247708645256
  43    1.2813242356048e-05
  44    4.1110779855102e-05
  45    -8.354385890015e-05
  46    7.2616319974955e-05
  47    6.205186430684e-05
  48    9.7457085323753e-05
  49    0.00016214677240124
  50    -0.00070726314527317
  51    3.6681456312014e-06
  52    3.5743041317291e-05
  53    -4.3876588288539e-05
  54    3.7760726510624e-05
  55    0.00042758078645069
  56    0.00014359598489294
  57    1.8442577472821e-05
  58    -1.2201675717029e-05
  59    2.8272199380302e-06
  60    1.793748436401e-05
  61    -1.1656667618018e-05
  62    -2.4304225702153e-05
  63    -5.0391429329993e-05
  64    0.00018770702866767
  65    -1.5213984590677e-05
  66    -2.2870304328478e-05
  67    2.3279755259913e-05
  68    9.4452026968416e-06
  69    5.8237749394898e-05
  70    -5.4336801237707e-05
  71    1.501602146489e-05
  72    4.658988638607e-06
  73    2.1428041265101e-06
  74    -1.1448261879334e-05
  75    -2.6830320181736e-06
  76    0.00013044561761786
  77    -0.0001274580454297
  78    -1.0943586279055e-05
  79    -2.5359955670968e-05
  80    -5.7625353156638e-06
  81    -2.2649564558561e-05
  82    -3.8507881603521e-05
  83    0.00011444897947155
  84    -2.1128553681902e-05
  85    -6.1279930349386e-06
  86    -9.6434090073033e-06
  87    0.00019007939122818
  88    -3.9808687266666e-05
  89    -1.5611362481666e-05
  90    -7.4295401351128e-06
  91    -9.4394086461802e-07
  92    6.2189860565258e-06
  93    -3.9293185152747e-06
  94    -2.4770244719534e-06
 Sym= A
 Ene=               3
 Spin= Alpha
 Occup=    1.00000
   1    -0.00019239742101535
   2    0.00028556076085191
   3    0.0037744831278412
   4    -0.00039671593057003
   5    -0.00097352442121905
   6    3.2843467378044e-05
   7    0.00026226711321696
   8    -0.0016161920610436
   9    0.00037398558516946
  10    -7.9156658926827e-05
  11    -2.6493480837614e-05
  12    9.3891178391322e-06
  13    -8.1526665805509e-05
  14    9.1468201693843e-05
  15    6.0917812979158e-05
  16    7.0829200259501e-05
  17    -0.0015496739051122
  18    0.00012056794842112
  19    -9.0967857901007e-06
  20    6.1744747916282e-07
  21    0.00081333583369053
  22    0.00039081331884231
  23    -1.4764768414998e-05
  24    -1.7960395247807e-05
  25    -1.0941017029308e-06
  26    1.6219545960906e-05
  27    -8.2152785205374e-05
  28    -1.9923780874439e-05
  29    0.00013044491957647
  30    -0.00012745268162831
  31    1.0943744353411e-05
  32    -2.4843307884084e-05
  33    -7.6896675951447e-06
  34    -2.4303845858279e-05
  35    -5.0390823843849e-05
  36    0.00018770278384011
  37    1.5210159887328e-05
  38    -8.1621766861553e-06
  39    -3.1595584800382e-05
  40    -9.449336006338e-06
  41    2.3265968321028e-05
  42    7.6176887781655e-05
  43    1.025647666893e-05
  44    5.3761559681504e-06
  45    -7.3763626028249e-06
  46    -1.4196016181602e-05
  47    -5.748218943095e-09
  48    -2.2649889264685e-05
  49    -3.8512117690371e-05
  50    0.00011444567298835
  51    2.1141950531385e-05
  52    -1.012779530278e-05
  53    5.2843261951957e-06
  54    -0.0001900711865369
  55    -4.2280822533918e-05
  56    -6.3847166921603e-06
  57    -8.4570363418619e-06
  58    4.2119245931721e-07
  59    4.164103103309e-06
  60    -4.5224763907212e-06
  61    2.6169582624404e-06
  62       1.0010290773462
  63    0.00076905391025236
  64    -0.0058376322551953
  65    0.00071685826591563
  66      0.00229354226269
  67    -5.6586479521474e-05
  68    -0.00027169373658669
  69    -0.00059280763613699
  70    -7.3583668436239e-05
  71    5.4948132636844e-05
  72    4.5784754756674e-06
  73    7.218715251965e-07
  74    9.6947278251773e-05
  75    -7.4296453161464e-05
  76    -0.00022825820494135
  77    -6.6016169502244e-05
  78    1.0633734849379e-05
  79    0.00016347133404091
  80    -1.6389790810487e-05
  81    9.7457791765007e-05
  82    0.00016215456673561
  83    -0.00070726760040023
  84    -3.6793994217147e-06
  85    8.9794429115155e-06
  86    5.5868541355698e-05
  87    -3.777091940981e-05
  88    0.00044206922769347
  89    8.943411480792e-05
  90    5.5229096904216e-06
  91    -4.7389723909989e-06
  92    -2.3013115578471e-05
  93    1.0478208608653e-05
  94    1.6195767260769e-05
 Sym= A
 Ene=               4
 Spin= Alpha
 Occup=    1.00000
   1    -0.00017626129491928
   2    0.00029453403225625
   3    0.0034884542744978
   4    -0.00039190046323555
   5    0.00044009074354722
   6    0.00083209124476196
   7    0.00017697931081723
   8    0.00047492724838086
   9    0.0015132441998702
  10    6.914963044758e-05
  11    -7.4594869372361e-05
  12    9.1025499978951e-05
  13    -4.8575915918897e-06
  14    -4.4432040316711e-05
  15    6.5842601348849e-05
  16    8.8329686074076e-05
  17    -0.0014102619990811
  18    0.00014588400908066
  19    1.2401914258354e-05
  20    3.3826755735512e-05
  21    0.00062553873999793
  22    9.8521020622661e-06
  23    -0.00037999532627486
  24    7.7292210819402e-05
  25    4.3498373399937e-05
  26    4.3105952106442e-05
  27    -3.718319467992e-05
  28    -7.5885277968405e-06
  29    7.2560605814004e-05
  30    4.9202442644195e-05
  31    5.4257245810507e-05
  32    -1.8495625892412e-05
  33    1.0503675761014e-05
  34    -2.4470526401469e-05
  35    -4.3242347769577e-05
  36    0.00014681056626787
  37    1.0767046647336e-05
  38    9.0625043538499e-06
  39    -1.8537381601331e-06
  40    -0.00012750399626907
  41    1.472601748234e-05
  42    6.2690475784722e-05
  43    1.1456546500629e-05
  44    1.7171194197824e-06
  45    5.7160612972616e-06
  46    3.4061662038144e-06
  47    1.6506343635261e-06
  48    2.2615098061404e-05
  49    4.9687888140275e-05
  50    -2.3502003593862e-05
  51    -2.4010750332711e-05
  52    -8.6268972189806e-06
  53    6.8859018608378e-06
  54    1.8265704944526e-05
  55    -2.4787248199238e-05
  56    8.4031649448571e-06
  57    7.7162905455039e-06
  58    7.4104711844255e-06
  59    -7.3684635838738e-06
  60    -1.1737929851989e-05
  61    2.438858401719e-06
  62    9.229294526994e-05
  63    0.00015344219507763
  64    -0.00065876168823621
  65    -4.4230311845646e-07
  66    -5.0807442485985e-05
  67    1.535881228904e-05
  68    -3.8598511341909e-05
  69    -0.00027256310563213
  70    -0.00031588997927262
  71    9.131392253133e-06
  72    -1.597149409558e-05
  73    -1.9190686417405e-05
  74    9.6017936684694e-06
  75    -3.9488315682572e-06
  76    -0.00023992328698219
  77    -6.5120205566327e-05
  78    6.2152663095481e-06
  79    -6.4206128931157e-05
  80    -0.00015285024173966
  81       1.0010206044607
  82    0.00087775588673019
  83    -0.0056226544149725
  84    0.00074334063133277
  85    -0.0010620805994769
  86    -0.0019050102863716
  87    -0.00026574754980675
  88    0.00033883788656646
  89    0.00052786302403093
  90    -7.2986499283862e-05
  91    6.6044920532196e-05
  92    -8.2431325572733e-05
  93    2.3016862971098e-05
  94    2.9024724750053e-05
 Sym= A
 Ene=               5
 Spin= Alpha
 Occup=    1.00000
   1     6.58447784307e-05
   2    8.8346500780792e-05
   3    -0.0014102523638922
   4    -0.00014586771373188
   5    2.7663684115706e-05
   6    -2.3101531710951e-05
   7    -0.00062555831933628
   8    -0.00018146461238306
   9    0.00033398632322237
  10    2.4027587331524e-05
  11    4.1460234773281e-05
  12    -6.3420854343275e-05
  13    -6.7932755536069e-05
  14    -1.517113050617e-05
  15    -0.00017624535458993
  16    0.0002946656009701
  17    0.0034885066289358
  18    0.00039196037135971
  19    0.00079731064332452
  20    -0.00050066130186059
  21    -0.0001769788739626
  22    0.0011679101692821
  23    -0.0010730433113719
  24    -2.3991108355497e-05
  25    -4.2396759756712e-05
  26    -9.5289875613543e-05
  27    -5.8624007599703e-05
  28    7.5792853293611e-05
  29    -0.00023991656859254
  30    -6.5144730194888e-05
  31    -6.2122641058087e-06
  32    -0.00013202355534227
  33    0.00010026592723235
  34    9.2293239939149e-05
  35    0.00015342309402008
  36    -0.00065879418159041
  37    4.4458532366952e-07
  38    -3.6374336386347e-05
  39    -3.871394122493e-05
  40    3.8600278143508e-05
  41    -0.00039403538995763
  42    0.00013728103906386
  43    1.8020031046293e-05
  44    -1.1856813845052e-05
  45    -1.4113560590605e-06
  46    1.4732879196618e-05
  47    1.1405917002395e-05
  48       1.0010206048831
  49    0.00087709615200613
  50    -0.0056234393464938
  51    -0.00074325984027087
  52    -0.0018729371851479
  53    0.0011188151914667
  54    0.00026581115923768
  55    0.00055693960003014
  56    -0.0002876846746331
  57    1.1218232589761e-05
  58    4.2684308393023e-05
  59    8.5979572746832e-05
  60    7.1622919233976e-05
  61    -5.8154212021296e-05
  62    -2.4469469518829e-05
  63    -4.3241406168412e-05
  64    0.00014680376424532
  65    -1.076751042957e-05
  66    6.9190921049714e-06
  67    6.1394940114122e-06
  68    0.00012750366241355
  69    4.409329790619e-05
  70    -4.6922760974089e-05
  71    2.1361012095957e-06
  72    6.6174387923933e-07
  73    -1.2925285544378e-05
  74    -1.9749088618223e-06
  75    -2.2881266825444e-06
  76    7.2565591669745e-05
  77    4.9165786273549e-05
  78    -5.425816233955e-05
  79    -1.0766168499557e-05
  80    -1.8343688954562e-05
  81    2.2613836519506e-05
  82    4.9687505726851e-05
  83    -2.3490042502189e-05
  84    2.4014293023704e-05
  85    -4.0275208685101e-06
  86    -1.0277660006667e-05
  87    -1.8258795165588e-05
  88    -1.726605534419e-05
  89    -1.9671248046849e-05
  90    1.2890500162967e-05
  91    5.1979313665099e-06
  92    2.9796545326513e-06
  93    -8.7505648794861e-06
  94    -5.817461526594e-06
 Sym= A
 Ene=               6
 Spin= Alpha
 Occup=    1.00000
   1    0.0010625979970712
   2     0.014384184442338
   3     0.011394210506356
   4    -0.016490243761599
   5     0.018549085204144
   6     0.032114884564415
   7    -0.020468545846999
   8     0.016604958823835
   9     0.044285249709189
  10    -0.0023192950184099
  11    -0.0070510643902193
  12    -0.035490452852921
  13     0.013497311525524
  14     0.017329926140557
  15    0.0016299097720752
  16     0.013850799036695
  17     0.016367587265051
  18    -0.023907310215922
  19    -0.0013804858579474
  20    -0.005120523754717
  21    -0.019318474189249
  22    0.00056820680024761
  23    -0.013527081707108
  24    0.00044793877286888
  25    -0.00013695411537441
  26    0.00087522940151606
  27    -1.8373120794739e-05
  28    0.00068357491246104
  29    -0.0057253045918948
  30    0.0017993093442981
  31    0.00010328565476543
  32    -0.0006871865851357
  33    0.00022430087560466
  34     0.001506344113915
  35    0.0070609254193252
  36    0.00065945958602056
  37    -0.012187011934292
  38    -0.0001418612641642
  39    0.0023581686591084
  40    -0.003295628028619
  41    0.0013046136391013
  42    0.0043550135667594
  43    0.00053746628318172
  44    -6.2246882027423e-05
  45    0.00025113317541874
  46    -0.0010665518609369
  47    -0.00085488220920915
  48    -0.00031887682843794
  49    -0.0025542962613488
  50    -0.0035480418697931
  51    0.0063916238272828
  52      0.00201082659178
  53    -0.0013512928565757
  54     0.005255731516605
  55     0.001796533881904
  56    -0.00055872677808015
  57    -0.00025048704840712
  58    -0.00019286285962944
  59    0.00015012262607431
  60    0.00040096535661609
  61    0.00039691724342268
  62    0.00031281462137633
  63    0.0023242064086321
  64    -0.00094581362522961
  65     -0.32149591922287
  66      0.11955085794122
  67       0.5689082639517
  68      -0.2225632882655
  69     0.079929733085875
  70      0.39193639904443
  71    -0.00044621011614595
  72    0.0047911279106357
  73     0.012006996890246
  74    -0.0049333020564135
  75    -0.0061207036247439
  76     0.023193585874721
  77     0.016576142788076
  78    -0.00067451087870224
  79    -0.00077094561101938
  80    -0.00068106872922647
  81    0.0015107431229968
  82    -0.014287059855379
  83    -0.049676573052954
  84    -0.0061223864411427
  85     0.032853170783048
  86     0.031839342073322
  87    -0.0051178632748273
  88     0.031587766642725
  89     0.028688196848486
  90    -0.00011911106204102
  91    -0.00028774754272984
  92    -0.00045368151866003
  93    -0.00035995693345185
  94    0.00070847225380739
 Sym= A
 Ene=               7
 Spin= Alpha
 Occup=    1.00000
   1    0.0011369021836212
   2     0.033207888858182
   3     0.088476595644097
   4     0.042278443640873
   5    0.0041334821174337
   6    -0.010734900072545
   7       0.0177712985916
   8     -0.01403809717985
   9    -0.0095831329671455
  10    0.00033202050314146
  11    -0.0012455251056392
  12    0.0010671326896938
  13    0.0015877854277787
  14    0.00067627051707214
  15    0.0028833887036897
  16    0.0036242398843742
  17    -0.011472293443259
  18    0.00070353305947378
  19    0.0018413518217735
  20    -0.00061759450210851
  21     0.030542292119803
  22      0.01833305126295
  23     0.010275119477723
  24    -0.023398035794624
  25    -0.010334046067226
  26     0.017186024907147
  27     0.011743922638163
  28     0.026110999104157
  29    -0.050810761560804
  30    -0.046626877914416
  31    -0.0018848876251594
  32    -0.0029574509498388
  33    0.00070014611110444
  34    -0.00073615581979185
  35    -0.00023738869387843
  36    0.0092556289929558
  37    -0.0035878178957238
  38     0.001546983823844
  39    -0.001456353422512
  40    -0.0052078328025362
  41    0.0015852787915636
  42    0.00051028782950382
  43    -0.00058039771615394
  44    -0.00022714062909614
  45    0.00031618913554862
  46    0.00029975507234595
  47    0.00030878769842872
  48    0.0015201664193545
  49    -0.0065065767173196
  50    -0.019510385641249
  51      0.54577392502884
  52      0.01830574581414
  53      0.38662683377766
  54      0.37961843001776
  55     0.014377353245552
  56      0.26647981912398
  57    0.0069910657961439
  58    0.0026191849824862
  59    -0.0062418426795016
  60    -0.0037405569088864
  61    -0.0094187492661627
  62    0.00093038515266125
  63    -0.002751801923748
  64    -0.020427647761405
  65    -0.0083444031506918
  66    -0.0096369979577425
  67    0.0021259892013427
  68    -0.0060920642190039
  69    -0.012579114804765
  70    0.0016843108092695
  71    -7.8008992226632e-05
  72    -0.00011440317264146
  73    -0.00017530430457606
  74    0.00068224010334602
  75    0.00064048732509415
  76      0.01050642012925
  77     -0.03090185002416
  78    -0.0034681631206726
  79    -0.0010291380493856
  80    0.0014693531090651
  81    8.6101528899113e-05
  82    -0.0015528361740041
  83    -0.0053319055757301
  84    -0.0031259928405377
  85    0.0021207546780542
  86    0.0044828932220696
  87    -0.0041516954632713
  88    0.0055564081947708
  89     0.005066847442303
  90    -2.1877312471336e-05
  91    -0.00048529635846067
  92    -0.000248372527316
  93    0.00031446264384711
  94    -0.00022080704562999
 Sym= A
 Ene=               8
 Spin= Alpha
 Occup=    1.00000
   1    -0.0028833617738835
   2    -0.003623795424249
   3     0.011473133020818
   4    0.00070319298630361
   5    -0.0012873006175536
   6    -0.0014558734492503
   7     0.030541934723336
   8    -0.021015943322961
   9    -0.00026779975809041
  10     0.030056459637923
  11     0.022004507016131
  12    -0.0038710493688438
  13    -0.0078991635151062
  14     0.017445743054112
  15    -0.0011367974923417
  16    -0.033207211569782
  17    -0.088476323109252
  18     0.042277649499467
  19    0.0017877422626708
  20    -0.011363252506409
  21     0.017771096093122
  22     0.016948689630145
  23    -0.0012805507812329
  24    0.00093661025234963
  25     0.001416813836299
  26    0.0014700656290363
  27    -0.00085526933499914
  28    -3.7076182017816e-05
  29    -0.010506050286928
  30     0.030902022100768
  31    -0.0034681794786524
  32    0.00015656550819831