[Molden Format]
made by pyscf v[2.0.1]
[Atoms] (AU)
C   1   6     0.00000000000000     0.00000000000000     0.00000000000000
C   2   6     2.85272299873892     0.00000000000000     0.00000000000000
H   3   1     3.62066923017674     0.00000000000000     1.90331545357504
F   4   9     3.65943188126013    -2.04308229183900    -1.24074875274501
F   5   9     3.65943188126013     2.04308229183900    -1.24074875274501
F   6   9    -0.80670888252121     0.76755391149953    -2.26373667011121
H   7   1    -0.76794623143782     1.22342759088295     1.45802422671364
F   8   9    -0.80670888252121    -2.36262976149657     0.36279929541697
[GTO]
1 0
 s    8 1.00
                  6665  0.00069158396281299
                  1000  0.0053257961529341
                   228   0.027060721042034
                 64.71    0.10165684614077
                 21.06     0.2745748236174
                 7.495    0.44829431892377
                 2.797    0.28490261071525
                0.5215   0.015194859206082
 s    8 1.00
                  6665  -0.00029326965268655
                  1000  -0.0023180354739745
                   228  -0.011499786038565
                 64.71  -0.046826727009787
                 21.06   -0.12846616875047
                 7.495   -0.30126627246289
                 2.797   -0.25563070233011
                0.5215      1.093793361012
 s    1 1.00
                0.1596                   1
 p    3 1.00
                 9.439   0.056979251590039
                 2.002    0.31320721150073
                0.5456    0.76037674173753
 p    1 1.00
                0.1517                   1
 d    1 1.00
                  0.55                   1

2 0
 s    8 1.00
                  6665  0.00069158396281299
                  1000  0.0053257961529341
                   228   0.027060721042034
                 64.71    0.10165684614077
                 21.06     0.2745748236174
                 7.495    0.44829431892377
                 2.797    0.28490261071525
                0.5215   0.015194859206082
 s    8 1.00
                  6665  -0.00029326965268655
                  1000  -0.0023180354739745
                   228  -0.011499786038565
                 64.71  -0.046826727009787
                 21.06   -0.12846616875047
                 7.495   -0.30126627246289
                 2.797   -0.25563070233011
                0.5215      1.093793361012
 s    1 1.00
                0.1596                   1
 p    3 1.00
                 9.439   0.056979251590039
                 2.002    0.31320721150073
                0.5456    0.76037674173753
 p    1 1.00
                0.1517                   1
 d    1 1.00
                  0.55                   1

3 0
 s    3 1.00
                 13.01   0.033498726389998
                 1.962    0.23480080117413
                0.4446     0.8136829578829
 s    1 1.00
                 0.122                   1
 p    1 1.00
                 0.727                   1

4 0
 s    8 1.00
                 14710  0.00072067370873197
                  2207  0.0055504869689163
                 502.8   0.028254207662589
                 142.6    0.10639582836653
                 46.47    0.28668420124307
                  16.7    0.44843796582416
                 6.356    0.26464118141135
                 1.316   0.015326060993048
 s    8 1.00
                 14710  -0.00032119389049893
                  2207  -0.0025461915683188
                 502.8  -0.012643359507821
                 142.6   -0.05195749170489
                 46.47   -0.14344713812646
                  16.7   -0.33243762329603
                 6.356   -0.21865906750347
                 1.316     1.0955904138622
 s    1 1.00
                0.3897                   1
 p    3 1.00
                 22.67   0.064834021493887
                 4.977    0.34053535983101
                 1.347    0.73464640679382
 p    1 1.00
                0.3471                   1
 d    1 1.00
                  1.64                   1

5 0
 s    8 1.00
                 14710  0.00072067370873197
                  2207  0.0055504869689163
                 502.8   0.028254207662589
                 142.6    0.10639582836653
                 46.47    0.28668420124307
                  16.7    0.44843796582416
                 6.356    0.26464118141135
                 1.316   0.015326060993048
 s    8 1.00
                 14710  -0.00032119389049893
                  2207  -0.0025461915683188
                 502.8  -0.012643359507821
                 142.6   -0.05195749170489
                 46.47   -0.14344713812646
                  16.7   -0.33243762329603
                 6.356   -0.21865906750347
                 1.316     1.0955904138622
 s    1 1.00
                0.3897                   1
 p    3 1.00
                 22.67   0.064834021493887
                 4.977    0.34053535983101
                 1.347    0.73464640679382
 p    1 1.00
                0.3471                   1
 d    1 1.00
                  1.64                   1

6 0
 s    8 1.00
                 14710  0.00072067370873197
                  2207  0.0055504869689163
                 502.8   0.028254207662589
                 142.6    0.10639582836653
                 46.47    0.28668420124307
                  16.7    0.44843796582416
                 6.356    0.26464118141135
                 1.316   0.015326060993048
 s    8 1.00
                 14710  -0.00032119389049893
                  2207  -0.0025461915683188
                 502.8  -0.012643359507821
                 142.6   -0.05195749170489
                 46.47   -0.14344713812646
                  16.7   -0.33243762329603
                 6.356   -0.21865906750347
                 1.316     1.0955904138622
 s    1 1.00
                0.3897                   1
 p    3 1.00
                 22.67   0.064834021493887
                 4.977    0.34053535983101
                 1.347    0.73464640679382
 p    1 1.00
                0.3471                   1
 d    1 1.00
                  1.64                   1

7 0
 s    3 1.00
                 13.01   0.033498726389998
                 1.962    0.23480080117413
                0.4446     0.8136829578829
 s    1 1.00
                 0.122                   1
 p    1 1.00
                 0.727                   1

8 0
 s    8 1.00
                 14710  0.00072067370873197
                  2207  0.0055504869689163
                 502.8   0.028254207662589
                 142.6    0.10639582836653
                 46.47    0.28668420124307
                  16.7    0.44843796582416
                 6.356    0.26464118141135
                 1.316   0.015326060993048
 s    8 1.00
                 14710  -0.00032119389049893
                  2207  -0.0025461915683188
                 502.8  -0.012643359507821
                 142.6   -0.05195749170489
                 46.47   -0.14344713812646
                  16.7   -0.33243762329603
                 6.356   -0.21865906750347
                 1.316     1.0955904138622
 s    1 1.00
                0.3897                   1
 p    3 1.00
                 22.67   0.064834021493887
                 4.977    0.34053535983101
                 1.347    0.73464640679382
 p    1 1.00
                0.3471                   1
 d    1 1.00
                  1.64                   1

[5d]
[7f]
[9g]

[MO]
 Sym= A
 Ene=               0
 Spin= Alpha
 Occup=    1.00000
   1       1.0019092218782
   2     0.004219222826819
   3      -0.0073412502108
   4    -0.00058736586669358
   5    -0.00067375361931655
   6    -0.00074735665327709
   7    -0.0015421685980455
   8    -0.0003497430041602
   9    -0.00034047634774157
  10    8.4362531165558e-05
  11    7.5380804748997e-05
  12    -0.00020545443503989
  13    -0.00023323042594339
  14    7.2779174384877e-05
  15    -0.00023475167187458
  16    1.7118890947279e-05
  17    0.0033203726847269
  18    -0.00048862507845595
  19    7.8448775807202e-06
  20    -9.8677298469492e-07
  21    -0.0014740380636639
  22    -1.7304240404557e-06
  23    -0.00014107833925645
  24    -6.0111956154835e-05
  25    -0.00011354676904239
  26    2.0754317570939e-05
  27    5.3408477683672e-05
  28    -7.221569400507e-05
  29    -5.9571121789293e-05
  30    0.00020548712733047
  31    -7.2799640771595e-05
  32    -2.290054583441e-06
  33    -7.0301147510269e-05
  34    8.4801592503492e-07
  35    1.7976024785703e-05
  36    -0.00019806909337212
  37    -2.7819861691195e-05
  38    1.685293408416e-05
  39    6.2928409154568e-06
  40    -8.9452525175079e-05
  41    -0.00010380034138821
  42    -4.2221870099169e-05
  43    -1.5499278771305e-05
  44    -1.072352057488e-05
  45    -5.989338022618e-07
  46    3.5085128244183e-05
  47    -1.4887065249426e-05
  48    -1.5241186276528e-05
  49    -1.6247846701021e-05
  50    -0.00010538035272355
  51    -5.6528630913231e-06
  52    -1.5365939852751e-05
  53    2.7649170714838e-06
  54    -0.00010625967278249
  55    6.7107007473466e-05
  56    -2.7489070495728e-05
  57    -1.6595538173265e-05
  58    -8.7231227873176e-06
  59    -1.080281098062e-05
  60    2.8739489616457e-05
  61    1.4571970629737e-05
  62    0.00013530616430211
  63    0.00063590499597493
  64    -1.4806836489216e-05
  65     8.21043604165e-05
  66    -0.00013642020900658
  67    0.00031176336692263
  68    -0.00014691509718261
  69    0.00028438544960241
  70    -0.00077928391455674
  71    -0.00010692744881167
  72    -6.3981207215412e-05
  73    9.0947789851748e-05
  74    -5.5028707554838e-06
  75    3.396235252004e-05
  76    0.00087333529998117
  77    0.0014842182911371
  78    0.00020944945160248
  79    -1.0118158529252e-05
  80    -2.7225425473246e-05
  81    0.00014628368705991
  82    0.0006580821407801
  83    -8.5329141725087e-05
  84    7.9040304887734e-05
  85    0.00033005304375757
  86    -7.825900910547e-05
  87    -0.00014741351739946
  88    -0.00085051372083251
  89    0.00014230454385557
  90    8.3023243619679e-05
  91    2.2974475738472e-05
  92    5.3995518483171e-05
  93    0.00010867048674159
  94    -7.2322490064387e-05
 Sym= A
 Ene=               1
 Spin= Alpha
 Occup=    1.00000
   1    -0.00023474938515272
   2    1.7211469011966e-05
   3    0.0033204412884454
   4    0.00048876685175441
   5    -6.6461788320904e-06
   6    4.2866112924569e-06
   7    0.0014740828929072
   8    -8.9358027113392e-05
   9    -0.00010918175427348
  10    -2.4274185813448e-05
  11    0.00013340065364015
  12    -2.856943187325e-05
  13    7.411436571203e-05
  14    1.7665869151896e-05
  15       1.0019092230361
  16    0.0042192307728559
  17    -0.0073412208827137
  18    0.00058718496643107
  19    3.5745178708566e-05
  20    -0.0010056162060934
  21    0.0015421233996529
  22    4.9069524348882e-05
  23    -0.00048564073874186
  24    -5.9704399467542e-05
  25    -0.0001045256452991
  26    -7.2188002422341e-06
  27    -0.0003163854751594
  28    7.2996546439591e-06
  29    0.0008732505138692
  30    0.0014841770896223
  31    -0.00020945070475877
  32    -9.7491809898557e-06
  33    -2.7353296506696e-05
  34    0.0001352987981957
  35    0.00063589298288997
  36    -1.4817109342072e-05
  37    -8.2059788411948e-05
  38    0.00030483740890341
  39    0.00015113458334843
  40    0.00014695561523717
  41    -0.00071880723008748
  42    -0.00041416277494773
  43    3.8877886643373e-05
  44    2.7181669924451e-05
  45    -0.00010969984920751
  46    7.8680353709302e-05
  47    6.7142971834344e-05
  48    0.00014629278239884
  49    0.00065809051446933
  50    -8.5324073121581e-05
  51    -7.8992204977271e-05
  52    -0.00030309823028309
  53    0.00015221072249479
  54    0.00014745751090432
  55    0.00074302968880273
  56    -0.00043768054904221
  57    3.8734919273654e-05
  58    2.8888041611301e-05
  59    0.00011494298398055
  60    8.3102487557189e-05
  61    -7.0169643509849e-05
  62    8.4997130632744e-07
  63    1.7977081994064e-05
  64    -0.00019807624018586
  65    2.7782115666311e-05
  66    -8.8716953037871e-06
  67    1.564062599638e-05
  68    8.9414699441906e-05
  69    5.2371720145892e-05
  70    -9.9074772458393e-05
  71    -1.8958841626583e-05
  72    1.7784988241566e-05
  73    4.1609514602965e-06
  74    3.308834806861e-05
  75    -4.5116985384926e-06
  76    -5.9574983377722e-05
  77    0.00020546793647255
  78    7.2803141458177e-05
  79    -4.3434872069011e-05
  80    -5.5326228316391e-05
  81    -1.5241866707689e-05
  82    -1.6253939931749e-05
  83    -0.00010539570043638
  84    5.6347672569325e-06
  85    1.3540161576178e-05
  86    -7.7889140093991e-06
  87    0.00010623763110484
  88    -6.9083578450472e-05
  89    2.2057157540268e-05
  90    -2.5807448836071e-05
  91    -2.6847984778874e-06
  92    1.8727892995752e-06
  93    2.3421794987208e-05
  94    1.6771461753781e-05
 Sym= A
 Ene=               2
 Spin= Alpha
 Occup=    1.00000
   1    4.4064245643163e-05
   2    4.3840149716859e-05
   3    -0.0013793117365669
   4    -0.00013019014629635
   5    4.0830296763229e-06
   6    -2.1541919887327e-05
   7    -0.00072840935332495
   8    -0.00013790654241623
   9    0.00041924273492449
  10    2.6955390325889e-05
  11    3.1975986036727e-05
  12    -5.1559327195763e-05
  13    -6.8083650503313e-05
  14    1.5064837081473e-06
  15    -0.00018462136129868
  16    0.0003061970516522
  17    0.0036227018781838
  18    0.0004097676412964
  19    0.00083447694726704
  20    -0.00051859371602354
  21    -0.00025086373457638
  22    0.0011949987733272
  23    -0.0011875897835414
  24    -3.966244520525e-05
  25    -4.782210712802e-05
  26    -9.7569575775378e-05
  27    -5.5081328679178e-05
  28    8.6726525829812e-05
  29    -0.00022560309073856
  30    -1.1529046137002e-05
  31    -9.7203057537133e-06
  32    -0.00013361660708068
  33    9.2860423231714e-05
  34    9.5991571320277e-05
  35    0.00015957909811252
  36    -0.00068952054642492
  37    1.6567353338383e-06
  38    -3.6430227054643e-05
  39    -4.2442899218932e-05
  40    3.9185364210528e-05
  41    -0.00041382512883702
  42    0.00015036024559879
  43    1.8152470160598e-05
  44    -1.1591797576945e-05
  45    1.2931787611212e-07
  46    1.5206541295026e-05
  47    1.1812535378339e-05
  48       1.0010283019849
  49    0.00071134172500459
  50    -0.0058985843276574
  51    -0.00072452340540057
  52    -0.0019847286652924
  53    0.0012329464012655
  54    0.00027775270155599
  55    0.00051193119607722
  56    -0.00023492426557399
  57    1.2828484540269e-05
  58    4.4511680500142e-05
  59    8.3167317983429e-05
  60    7.1160924999547e-05
  61    -6.0499026352856e-05
  62    -1.2057492304551e-05
  63    -2.6576843883188e-05
  64    0.00016109282645275
  65    8.7348160698968e-06
  66    -7.8467511279684e-06
  67    -2.8533793598831e-05
  68    -7.6447691704655e-05
  69    -1.9928965786019e-06
  70    5.5941398580521e-05
  71    1.8166708310814e-06
  72    -6.8872292905885e-06
  73    8.4499235790245e-07
  74    -2.4429045692407e-05
  75    -2.2566631903301e-06
  76    7.7925429450375e-05
  77    -0.00018782082913401
  78    -1.753348762321e-05
  79    4.092845861649e-06
  80    -2.1831197147779e-05
  81    -2.7555277314265e-05
  82    -4.9619348785844e-05
  83    0.00014602541070952
  84    -1.5756544322599e-05
  85    7.5342344668266e-06
  86    6.1806834678728e-06
  87    0.00015299501587706
  88    2.8137430003083e-05
  89    -5.7256258028198e-05
  90    5.395350646978e-06
  91    5.4205179609457e-07
  92    -1.0107041595501e-05
  93    2.0767966414803e-06
  94    -1.5970487374347e-06
 Sym= A
 Ene=               3
 Spin= Alpha
 Occup=    1.00000
   1    -0.00018981568047949
   2    0.00026762481740585
   3    0.0036141168586018
   4    -0.00039287437146821
   5    -0.00092271406021677
   6    0.00013158426435186
   7    0.00025166304432041
   8    -0.0016789426856152
   9    -0.00014600023675588
  10    -7.6410189402409e-05
  11    -1.8492892585207e-05
  12    -4.3334059268873e-05
  13    -7.5744558449089e-05
  14    9.5183167020932e-05
  15    4.3456176704941e-05
  16    4.2397840710315e-05
  17    -0.0013748798944888
  18    0.00013009843336781
  19    -1.3402799136429e-05
  20    -1.4736868878654e-05
  21    0.00072600370380931
  22    0.00037716356204175
  23    0.00023367905354365
  24    -9.0934194347516e-06
  25    -2.5728720232045e-05
  26    -1.2107833647835e-06
  27    -8.9802925874474e-05
  28    -2.1941893826909e-05
  29    7.6681269735099e-05
  30    -0.00018841348379408
  31    1.7511065650949e-05
  32    -1.7016981469902e-05
  33    -1.420953619279e-05
  34    -1.2115498360853e-05
  35    -2.6809420912975e-05
  36    0.00016131064920016
  37    -7.6599252011014e-06
  38    -1.082318466241e-05
  39    -2.6752988213896e-05
  40    7.694865488954e-05
  41    3.739090188133e-05
  42    4.1779598161953e-05
  43    1.0124057792916e-05
  44    6.7406297658729e-06
  45    -1.0745016958097e-05
  46    -1.9582726263586e-05
  47    2.792002905913e-06
  48    -2.7690364034104e-05
  49    -5.0235222796223e-05
  50    0.00014496724090892
  51    1.6960289894742e-05
  52    -1.2692545578274e-06
  53    9.0813836227779e-06
  54    -0.00015190312680749
  55    -5.8260009572102e-05
  56    -2.6250579755203e-05
  57    -7.3487495928891e-06
  58    5.4388943133954e-07
  59    7.3269890844921e-06
  60    -5.2256010862481e-06
  61    -1.5155650365976e-06
  62    9.6254942343725e-05
  63    0.00016082767195933
  64    -0.00068986699277387
  65    -1.2086482097204e-06
  66    -8.0093592922487e-07
  67    -5.3568440782843e-05
  68    -3.9524371529894e-05
  69    0.00041188233159557
  70    -0.00014899809647902
  71    1.4871778694388e-06
  72    1.447068553897e-06
  73    2.3668775958594e-05
  74    5.8969225238998e-06
  75    1.6681207324049e-05
  76    -0.00022522704078494
  77    -1.0455792827213e-06
  78    1.0689202139326e-05
  79    0.00016381574266538
  80    -1.4951129534309e-05
  81       1.0010283529027
  82    0.00092264766465812
  83    -0.0056488734539646
  84    0.00068267763789436
  85    0.0021595401723875
  86    -0.00031186292506288
  87    -0.0003053188958943
  88    -0.00064538251938883
  89    0.00016260213209561
  90    5.2508224097068e-05
  91    5.0878195850511e-06
  92    3.2356054503075e-05
  93    9.5978106161333e-05
  94    -7.7165009445198e-05
 Sym= A
 Ene=               4
 Spin= Alpha
 Occup=    1.00000
   1    -0.00017560752809423
   2    0.00031889926640294
   3    0.0033084259840589
   4    -0.00043035411441167
   5    0.00030960381522452
   6    -0.00093525604029411
   7    9.117454503728e-05
   8    0.00016226256006851
   9    -0.0016497318345238
  10    8.7902831270306e-05
  11    9.5015750566317e-05
  12    -7.6965264648888e-05
  13    3.6792394683017e-06
  14    -1.3608627007074e-05
  15    3.9195221710745e-05
  16    4.2655752011918e-05
  17    -0.0012265503296431
  18    0.00015890441425648
  19    -1.3945549799633e-05
  20    -5.4406426983317e-06
  21    0.00036709273828032
  22    -1.2370568382864e-05
  23    0.00040529991379233
  24    5.9550943539435e-05
  25    -1.5859633641312e-05
  26    -3.4943970471854e-05
  27    -3.2327274213424e-05
  28    5.106394398239e-06
  29    1.9187704689109e-05
  30    8.8371495685495e-05
  31    -2.8771514676717e-05
  32    1.1969868191922e-05
  33    -2.2058721130265e-05
  34    1.0826784351967e-05
  35    2.3179335595481e-05
  36    8.9742998017066e-05
  37    -4.5727751843811e-05
  38    -3.8441825959574e-06
  39    -1.1703412144604e-06
  40    0.00014892245213148
  41    4.8400733175972e-05
  42    1.6829167940254e-05
  43    1.0371751858562e-05
  44    -3.8022918880594e-06
  45    2.331996425884e-07
  46    -1.9610901530008e-05
  47    1.0656404764941e-05
  48    -1.1794377068237e-05
  49    -2.5697266169669e-05
  50    0.00013287954481144
  51    -7.668708835882e-06
  52    3.2084031047151e-05
  53    8.8856160611142e-06
  54    8.1395980730394e-05
  55    -8.9632306431523e-05
  56    -2.6073788028934e-05
  57    1.224255673581e-05
  58    -7.0589674483233e-08
  59     1.43853487004e-06
  60    -1.5666058276667e-05
  61    -9.7813709205432e-06
  62       1.0010260168435
  63    0.00070992296220722
  64    -0.0058689054787638
  65    0.00072248581808037
  66    -0.0007461691942025
  67    0.0022100101018599
  68    -0.0002729566032163
  69    0.00025886591402117
  70    -0.00050021137852243
  71    -9.0278123861445e-05
  72    -7.2381838777723e-05
  73    6.149399915902e-05
  74    8.5588940856042e-06
  75    2.0878598271641e-05
  76    -0.00020551717609584
  77    -6.5175096008707e-05
  78    3.2877939266158e-06
  79    -4.0742136044864e-05
  80    0.00015359749980835
  81    9.9245736206425e-05
  82    0.00016522254540692
  83    -0.0007048621799251
  84    -3.5739532503854e-06
  85    -5.7379847673225e-05
  86    -7.6365693027001e-06
  87    -4.2506415543709e-05
  88    -0.00022363326573428
  89    0.00037808729212207
  90    4.0797208413664e-06
  91    1.6259578187313e-05
  92    2.3525038567534e-05
  93    5.4320338537661e-06
  94    -2.0256828363974e-06
 Sym= A
 Ene=               5
 Spin= Alpha
 Occup=    1.00000
   1    3.876032700591e-05
   2    4.1649387560372e-05
   3    -0.0012234569431567
   4    -0.00015914260719478
   5    8.5327344092969e-06
   6    -1.2225439439141e-05
   7    -0.0003650948655504
   8    0.00026951454944582
   9    0.00030331327482334
  10    4.5972663320201e-06
  11    9.6565686932358e-06
  12    4.0797700522462e-05
  13    -6.4576607199059e-05
  14    1.5174359478359e-05
  15    -0.00017821395453229
  16    0.00029960180216799
  17    0.0033030646357037
  18    0.00042206120095011
  19    -0.00081698709828632
  20    -0.00050428816213423
  21    -9.1273722046402e-05
  22    -0.0011827429517805
  23    -0.0011611914989005
  24    -3.3107751688121e-05
  25    -6.3643423748173e-05
  26    8.8923532051103e-05
  27    -6.6108765565742e-05
  28    -7.0413790270692e-05
  29    -0.00020500359605139
  30    -5.9674987637751e-05
  31    -3.7642711643189e-06
  32    0.00013063050002081
  33    9.1927565834371e-05
  34       1.0010260488727
  35    0.00081574652909514
  36    -0.0057436052951324
  37    -0.00070380385069729
  38    0.0019280668553627
  39    0.0011695113155979
  40    0.00028531049670441
  41    -0.00056254540702155
  42    -0.00024588818884269
  43    1.5250757392514e-05
  44    4.2619124572023e-05
  45    -8.5089665084356e-05
  46    7.0470912968221e-05
  47    6.3396633765358e-05
  48    9.9402896636185e-05
  49    0.00016586097425384
  50    -0.00070526565716933
  51    3.3792107990006e-06
  52    3.7841230117948e-05
  53    -4.2246051830038e-05
  54    4.2671326221589e-05
  55    0.00041318643091212
  56    0.00014598403774482
  57    1.9920573907092e-05
  58    -1.1272348730893e-05
  59    2.1121025925473e-06
  60    1.4735729258054e-05
  61    -1.2025612976779e-05
  62    1.0885888493003e-05
  63    2.3344785018467e-05
  64    8.958396592071e-05
  65    4.5689223182538e-05
  66    2.1648951065295e-06
  67    -3.1146488868056e-06
  68    -0.00014947327048448
  69    -2.6230542040401e-05
  70    4.4018853379577e-05
  71    1.1154212937839e-05
  72    -3.933537580927e-06
  73    -8.2271073774738e-07
  74    -1.9154456366434e-05
  75    1.0631247236713e-05
  76    1.8749635272377e-05
  77    8.7846026982192e-05
  78    2.8909744802662e-05
  79    -2.3480429065693e-05
  80    -9.4435202837412e-06
  81    -1.1764147380017e-05
  82    -2.5755814506763e-05
  83    0.00013227409178008
  84    7.0565886320565e-06
  85    -1.8234887387676e-05
  86    2.7738493989212e-05
  87    -8.1732680694751e-05
  88    5.1744194873783e-05
  89    -7.7751104103043e-05
  90    1.1512561600989e-05
  91    6.330547384477e-06
  92    2.5115433304959e-06
  93    -1.6067533297217e-05
  94    -7.4904803404432e-06
 Sym= A
 Ene=               6
 Spin= Alpha
 Occup=    1.00000
   1    -0.0014064702182055
   2    -0.016634989499328
   3    -0.021527290743449
   4     0.014901900574637
   5    -0.0091086772437319
   6     0.034393464907555
   7    0.0095599119725502
   8    -0.010391207395069
   9     0.048834668677727
  10      0.01353282830579
  11    -0.003926218598666
  12    -0.034967100528957
  13    -0.0074844747766255
  14    -0.017676634395065
  15    -0.0024591230037902
  16    -0.019381462837896
  17    -0.017652449839495
  18     0.020718676949761
  19    -0.0027076101638914
  20    -0.0049548410050642
  21    0.00039251481406254
  22    -0.017534772641413
  23    -0.015527211202444
  24    -0.00081451197442426
  25    -0.0013859305586395
  26    -0.0013285263127278
  27    -0.0017258382128058
  28    -0.00020907211306669
  29    -0.0067538536262602
  30     0.014798888728755
  31    0.00075690042194677
  32    0.00028395869740853
  33    -0.00028641208444076
  34    0.0011233086305228
  35    0.0017169483933995
  36    -0.010053914022238
  37    -0.0011439609704336
  38    0.0015528991878589
  39    -0.0039602554175941
  40    -3.8767228136149e-05
  41    -0.00056028150719187
  42    -0.0029625808878215
  43    8.3999440858752e-05
  44    -0.00019271937636884
  45    -0.00028757615760189
  46    -4.5436785522704e-05
  47    0.00038756079860018
  48    -0.00084301362393872
  49    0.0017915390682893
  50     0.012602194380573
  51    -0.0066002699714475
  52    -0.0056972422564454
  53    0.0054607287080833
  54    -0.0080193128649866
  55    -0.004519612115361
  56    0.0072536097444393
  57    2.9586320869452e-05
  58    0.00017971061734951
  59    -0.00017329437238779
  60    -0.00029755408594683
  61    -0.00013361581050438
  62    -0.0017524898172756
  63      0.01374688117163
  64       0.0505164513683
  65     0.006250201444063
  66    -0.027171466740954
  67     0.037310372164239
  68    0.0062033573772646
  69    -0.025694105071856
  70      0.03426345462691
  71    0.00029451194669851
  72    -0.00018395534556448
  73    -0.00033266916675089
  74    0.00041434365297165
  75    -0.00070578171847982
  76    -0.022039212489469
  77    -0.019371595599032
  78    0.00057291182597678
  79    0.00083727199194659
  80    -0.0011322510080684
  81    -0.00073191165719323
  82    -0.0047717122968394
  83    -0.0014748702266924
  84       0.3200215888268
  85    -0.025090150703197
  86      0.58005162533537
  87      0.22262756188189
  88    -0.015648059359319
  89      0.39986230135082
  90    -0.0025289984864243
  91    0.0041087765667308
  92     0.012353019705878
  93    0.0031555469161543
  94    0.0067056016857224
 Sym= A
 Ene=               7
 Spin= Alpha
 Occup=    1.00000
   1     0.002159386122621
   2     0.030307593631652
   3     0.070796281410805
   4     0.046040318280142
   5    0.00055164589833699
   6    -0.0039454752779625
   7     0.044166057987358
   8    -0.020161516029466
   9    0.0020355402359402
  10    0.00048451080266869
  11    -0.0024938091758687
  12    0.0011642259417036
  13    0.0020570616698402
  14    0.00017549611220932
  15    0.0026930110892868
  16    0.00088054401060955
  17     -0.02731191097564
  18    0.0013294801695651
  19    -0.0012632634060398
  20    0.0024697450118359
  21     0.040815813038505
  22     0.022383195473065
  23    0.0070290953896935
  24    -0.023671597219922
  25    -0.011014323192008
  26     0.017814444279788
  27     0.011094019964518
  28     0.026521451682423
  29    -0.050758498006762
  30    -0.048201567780738
  31    -0.0019810315064802
  32    -0.0033304619530364
  33    0.00047535045112514
  34    -0.00067704002998175
  35    2.9691269655003e-05
  36    0.0095951626810132
  37    -0.0038651263018797
  38    0.0020973453355242
  39    -0.0012476679660855
  40    -0.005850100967827
  41    0.0013120784645707
  42    0.0016429104339737
  43    -0.00051583788932777
  44    -0.00023673512870431
  45    0.00032445100223988
  46    0.00035703814746527
  47    0.00033922394130383
  48    0.0012205472038809
  49    0.0054781903500391
  50    -0.0064055067540149
  51      0.54756996477172
  52     0.027209977322982
  53      0.38516265422494
  54       0.3796248953952
  55     0.021079434878543
  56      0.26442162007372
  57     0.007328887989829
  58    0.0032427991209013
  59    -0.0060322381260873
  60    -0.0033923857753725
  61    -0.0095941119771799
  62    0.0013160016320431
  63    0.0060185044211079
  64    0.00037963902409073
  65    0.0094862960021262
  66    0.0060013532052989
  67    0.00075352737087738
  68    -0.0027211965999387
  69    0.0043006132195871
  70    0.0030491823009139
  71    0.00094855016744131
  72    0.00067651493447048
  73     -0.00014360263222
  74    -0.00069225098856137
  75    -0.0010886086564383
  76    -4.4679802238483e-05
  77    -0.0028132439855656
  78    0.00077429293461159
  79    0.0013262798981991
  80    -0.00081071230068132
  81    0.0006361417239411
  82    -0.0023348973249163
  83    -0.014686578691014
  84    -0.0086969516691341
  85    -0.0071966357887974
  86    0.0016290846633945
  87    -0.0086075731401467
  88    -0.0080788934201322
  89     0.001307243911145
  90    -0.0001256925370375
  91    -0.0002208668355848
  92    -8.4504537610127e-06
  93    0.0006358436147514
  94    0.00071462546245702
 Sym= A
 Ene=               8
 Spin= Alpha
 Occup=    1.00000
   1    0.0026480719530259
   2     0.027956821337942
   3     0.065090949631283
   4     0.049320784068981
   5    -0.0030937980128008
   6    -0.0063764204435147
   7     0.037226528544326
   8     0.023951728583027
   9     0.012087837975657
  10    -0.0011115892302326
  11    -0.001234034901634
  12    -0.0016911356055984
  13    0.0015023690171793
  14    -0.00083026310924252
  15    0.0021998416444472
  16    0.0015353012618848
  17    -0.015536218138503
  18    0.00045741898978029
  19    -0.0002738067193759
  20    0.0017668584609938
  21     0.035254827780373
  22     -0.02013435326621
  23    0.0086560243997473
  24    -0.024254446737244
  25    -0.010579330260558
  26    -0.017827655982486
  27      0.01136703480223
  28    -0.026714939735622
  29    -0.052400400955763
  30    -0.049590702543192
  31    -0.0018746485127413
  32    0.0030372346268173