[Molden Format]
made by pyscf v[2.0.1]
[Atoms] (AU)
C   1   6     0.00000000000000     0.00000000000000     0.00000000000000
C   2   6     2.85272299873892     0.00000000000000     0.00000000000000
H   3   1     3.62066923017674     0.00000000000000     1.90331545357504
F   4   9     3.65943188126013    -2.04308229183900    -1.24074875274501
F   5   9     3.65943188126013     2.04308229183900    -1.24074875274501
F   6   9    -0.80670888252121    -1.57667650804493    -1.79658952118831
H   7   1    -0.76794623143782     1.87439981510865    -0.33050726003861
F   8   9    -0.80670888252121    -0.86712147444210     2.22749704090168
[GTO]
1 0
 s    8 1.00
                  6665  0.00069158396281299
                  1000  0.0053257961529341
                   228   0.027060721042034
                 64.71    0.10165684614077
                 21.06     0.2745748236174
                 7.495    0.44829431892377
                 2.797    0.28490261071525
                0.5215   0.015194859206082
 s    8 1.00
                  6665  -0.00029326965268655
                  1000  -0.0023180354739745
                   228  -0.011499786038565
                 64.71  -0.046826727009787
                 21.06   -0.12846616875047
                 7.495   -0.30126627246289
                 2.797   -0.25563070233011
                0.5215      1.093793361012
 s    1 1.00
                0.1596                   1
 p    3 1.00
                 9.439   0.056979251590039
                 2.002    0.31320721150073
                0.5456    0.76037674173753
 p    1 1.00
                0.1517                   1
 d    1 1.00
                  0.55                   1

2 0
 s    8 1.00
                  6665  0.00069158396281299
                  1000  0.0053257961529341
                   228   0.027060721042034
                 64.71    0.10165684614077
                 21.06     0.2745748236174
                 7.495    0.44829431892377
                 2.797    0.28490261071525
                0.5215   0.015194859206082
 s    8 1.00
                  6665  -0.00029326965268655
                  1000  -0.0023180354739745
                   228  -0.011499786038565
                 64.71  -0.046826727009787
                 21.06   -0.12846616875047
                 7.495   -0.30126627246289
                 2.797   -0.25563070233011
                0.5215      1.093793361012
 s    1 1.00
                0.1596                   1
 p    3 1.00
                 9.439   0.056979251590039
                 2.002    0.31320721150073
                0.5456    0.76037674173753
 p    1 1.00
                0.1517                   1
 d    1 1.00
                  0.55                   1

3 0
 s    3 1.00
                 13.01   0.033498726389998
                 1.962    0.23480080117413
                0.4446     0.8136829578829
 s    1 1.00
                 0.122                   1
 p    1 1.00
                 0.727                   1

4 0
 s    8 1.00
                 14710  0.00072067370873197
                  2207  0.0055504869689163
                 502.8   0.028254207662589
                 142.6    0.10639582836653
                 46.47    0.28668420124307
                  16.7    0.44843796582416
                 6.356    0.26464118141135
                 1.316   0.015326060993048
 s    8 1.00
                 14710  -0.00032119389049893
                  2207  -0.0025461915683188
                 502.8  -0.012643359507821
                 142.6   -0.05195749170489
                 46.47   -0.14344713812646
                  16.7   -0.33243762329603
                 6.356   -0.21865906750347
                 1.316     1.0955904138622
 s    1 1.00
                0.3897                   1
 p    3 1.00
                 22.67   0.064834021493887
                 4.977    0.34053535983101
                 1.347    0.73464640679382
 p    1 1.00
                0.3471                   1
 d    1 1.00
                  1.64                   1

5 0
 s    8 1.00
                 14710  0.00072067370873197
                  2207  0.0055504869689163
                 502.8   0.028254207662589
                 142.6    0.10639582836653
                 46.47    0.28668420124307
                  16.7    0.44843796582416
                 6.356    0.26464118141135
                 1.316   0.015326060993048
 s    8 1.00
                 14710  -0.00032119389049893
                  2207  -0.0025461915683188
                 502.8  -0.012643359507821
                 142.6   -0.05195749170489
                 46.47   -0.14344713812646
                  16.7   -0.33243762329603
                 6.356   -0.21865906750347
                 1.316     1.0955904138622
 s    1 1.00
                0.3897                   1
 p    3 1.00
                 22.67   0.064834021493887
                 4.977    0.34053535983101
                 1.347    0.73464640679382
 p    1 1.00
                0.3471                   1
 d    1 1.00
                  1.64                   1

6 0
 s    8 1.00
                 14710  0.00072067370873197
                  2207  0.0055504869689163
                 502.8   0.028254207662589
                 142.6    0.10639582836653
                 46.47    0.28668420124307
                  16.7    0.44843796582416
                 6.356    0.26464118141135
                 1.316   0.015326060993048
 s    8 1.00
                 14710  -0.00032119389049893
                  2207  -0.0025461915683188
                 502.8  -0.012643359507821
                 142.6   -0.05195749170489
                 46.47   -0.14344713812646
                  16.7   -0.33243762329603
                 6.356   -0.21865906750347
                 1.316     1.0955904138622
 s    1 1.00
                0.3897                   1
 p    3 1.00
                 22.67   0.064834021493887
                 4.977    0.34053535983101
                 1.347    0.73464640679382
 p    1 1.00
                0.3471                   1
 d    1 1.00
                  1.64                   1

7 0
 s    3 1.00
                 13.01   0.033498726389998
                 1.962    0.23480080117413
                0.4446     0.8136829578829
 s    1 1.00
                 0.122                   1
 p    1 1.00
                 0.727                   1

8 0
 s    8 1.00
                 14710  0.00072067370873197
                  2207  0.0055504869689163
                 502.8   0.028254207662589
                 142.6    0.10639582836653
                 46.47    0.28668420124307
                  16.7    0.44843796582416
                 6.356    0.26464118141135
                 1.316   0.015326060993048
 s    8 1.00
                 14710  -0.00032119389049893
                  2207  -0.0025461915683188
                 502.8  -0.012643359507821
                 142.6   -0.05195749170489
                 46.47   -0.14344713812646
                  16.7   -0.33243762329603
                 6.356   -0.21865906750347
                 1.316     1.0955904138622
 s    1 1.00
                0.3897                   1
 p    3 1.00
                 22.67   0.064834021493887
                 4.977    0.34053535983101
                 1.347    0.73464640679382
 p    1 1.00
                0.3471                   1
 d    1 1.00
                  1.64                   1

[5d]
[7f]
[9g]

[MO]
 Sym= A
 Ene=               0
 Spin= Alpha
 Occup=    1.00000
   1        1.001914196174
   2    0.0042325481181721
   3    -0.0074768401178679
   4    -0.00057717186306963
   5    -0.0010700042255131
   6    0.00023670455381209
   7    -0.0015864835493233
   8    -0.00059639510588303
   9    0.00022758601687547
  10    0.00031613020289848
  11    -1.2507180122604e-05
  12    7.5301697354845e-05
  13    -0.00010432282565243
  14    0.00011468681329203
  15    -0.00023176221338913
  16    3.1550038926474e-05
  17    0.0032849734753555
  18    -0.00047642175198379
  19    1.927195474381e-05
  20    -4.2336818172465e-07
  21    -0.0016080813726322
  22    0.00011494805243887
  23    -0.00037648637050958
  24    -7.6073581716734e-05
  25    -7.3807887976569e-07
  26    1.7499417743385e-06
  27    5.1221550056923e-05
  28    -0.00011378502533486
  29    -2.1223541103358e-05
  30    0.00040571244540486
  31    -9.7795634198947e-05
  32    9.3403755781278e-07
  33    -5.5792173312855e-05
  34    -3.4518259410953e-06
  35    8.0867365821752e-06
  36    -0.00017063486614941
  37    -2.6966191745153e-05
  38    1.5413915274469e-05
  39    -1.0161047669769e-06
  40    -7.3248730174887e-05
  41    -0.00010445013304859
  42    -4.3797162450034e-06
  43    -1.8983738299952e-05
  44    -9.2586006929028e-06
  45    1.020594372636e-06
  46    3.1921217898067e-05
  47    -1.4988477240186e-05
  48    1.0580569619403e-05
  49    2.5265056190465e-05
  50    -0.00025723242526509
  51     1.82229670132e-06
  52    -3.1961325790174e-07
  53    -7.8310134829312e-06
  54    -8.7853298149267e-06
  55    3.193317454825e-05
  56    -1.0857444024524e-05
  57    -1.5479692125689e-05
  58    -4.7651914219704e-06
  59    -1.5531923293347e-05
  60    1.7888809218679e-05
  61    1.0217576903003e-05
  62    0.00014231920759246
  63    0.00064953766098255
  64    -5.05499883461e-05
  65    8.3365496996971e-05
  66    0.00019572084783919
  67    0.00027586800532648
  68    -0.00016191468370247
  69    -0.00052134930689385
  70    -0.00066556643968096
  71    -5.4861959120392e-05
  72    -6.2928483899092e-05
  73    -0.00013157461146766
  74    2.555332491748e-05
  75    -4.1203157292466e-05
  76    0.0009419832755612
  77    0.0015289165635854
  78    0.00021872619878316
  79    -6.5516724237121e-05
  80    6.0805693949301e-07
  81    0.00015687434581203
  82    0.00067941471913093
  83    -0.0001581739665726
  84    7.3470859327346e-05
  85    9.3594636153873e-05
  86    -0.0003217732828556
  87    -0.00014283778633669
  88    -0.00030113629544894
  89    0.00082032491811792
  90    -0.00012453642961415
  91    7.6576450074994e-05
  92    8.3684071908601e-05
  93    -9.3827883230293e-06
  94    -1.8507922085932e-05
 Sym= A
 Ene=               1
 Spin= Alpha
 Occup=    1.00000
   1    -0.0002317621197708
   2    3.1534785785665e-05
   3    0.0032849621903288
   4    0.00047639976759789
   5    2.9267618801738e-06
   6    1.9053889765554e-05
   7     0.001608074323277
   8    -0.00035080646154831
   9    0.00017857755151172
  10    -8.9426221697256e-06
  11    0.00011192885937402
  12    1.5418099608659e-05
  13    8.9977110291515e-05
  14    2.0485854793639e-05
  15       1.0019141957589
  16    0.0042325459095573
  17    -0.0074768411288136
  18    0.00057720235573692
  19    4.7308658608996e-05
  20    -0.0010948337587043
  21    0.0015864920420985
  22    0.0001205645472091
  23    -0.0006268491659419
  24    -7.8446950757154e-05
  25    -0.00011511620792074
  26    -5.0376929465033e-06
  27    -0.00033213427755623
  28    -7.5969328803296e-06
  29    0.00094200562340401
  30    0.0015289250843043
  31    -0.00021872652803245
  32    -1.0777818041341e-05
  33    -6.4628544651509e-05
  34    0.0001423190730398
  35    0.00064953455827671
  36    -5.0552831913329e-05
  37    -8.3362906286213e-05
  38    0.00030565575488187
  39    0.00014484684363392
  40    0.00016191446702007
  41    -0.00074599145572922
  42    -0.00039785293539026
  43    4.2459552334873e-05
  44    2.9649963359907e-05
  45    -0.00011175943872606
  46    8.1741693407353e-05
  47    6.9127815835698e-05
  48    0.00015687357182899
  49    0.00067941733686467
  50    -0.00015817100645903
  51    -7.346383822785e-05
  52    -0.00030064314817078
  53    0.00014804726531981
  54    0.0001428411225641
  55    0.0007555631547901
  56    -0.00043901095501499
  57    3.9729215241811e-05
  58    3.1524313637507e-05
  59    0.00011712893198532
  60    8.5455499508744e-05
  61    -7.2199566119955e-05
  62    -3.4518169728636e-06
  63    8.0865018346125e-06
  64    -0.00017063395005746
  65    2.697141710223e-05
  66    1.6776463422403e-06
  67    1.5358041253854e-05
  68    7.3254056746566e-05
  69    -2.2449558881205e-05
  70    -0.00010210156498444
  71    -1.8479987038436e-05
  72    1.3152905387806e-05
  73    1.1231483534177e-06
  74    3.2211918030935e-05
  75    1.1720514879605e-05
  76    -2.122515640704e-05
  77    0.00040571460930043
  78    9.7794919988191e-05
  79    -5.4782142544932e-05
  80    1.0608019209871e-05
  81    1.058059139703e-05
  82    2.5264929085041e-05
  83    -0.00025723138249314
  84    -1.818364605226e-06
  85    -7.7680946555221e-06
  86    1.0431894032456e-06
  87    8.7893474390871e-06
  88    -5.1476095857071e-06
  89    3.333182812025e-05
  90    -3.3847213668073e-06
  91    -1.0889644641816e-05
  92    -1.3069331710298e-05
  93    2.487176182137e-05
  94    2.9184541698498e-06
 Sym= A
 Ene=               2
 Spin= Alpha
 Occup=    1.00000
   1    7.9391284382006e-05
   2    0.00011131428709459
   3    -0.0015508351945648
   4    -0.00014190431329401
   5    3.1718030654542e-05
   6    -2.203871855249e-05
   7    -0.00065479306757714
   8    -0.00023104948387985
   9    0.00023949388154906
  10    -1.7502561770582e-05
  11    2.0479101539537e-05
  12    -5.3298919302474e-05
  13    -8.16335608265e-05
  14    -3.493648017378e-05
  15    -0.00018680217239095
  16    0.0002762456806741
  17     0.003601077625063
  18    0.00039001289458954
  19    0.00080325069670901
  20    -0.00049708239003343
  21    -0.00019565615652339
  22    0.0011489620527189
  23    -0.0011090827998385
  24    -3.5783126535512e-05
  25    -6.116575848912e-05
  26    -8.7591853399083e-05
  27    -6.5510063902415e-05
  28    6.4575652762743e-05
  29    -0.00022180303693831
  30    -7.8482060771099e-05
  31    -9.6575786127666e-06
  32    -0.00012793436437864
  33    9.8203641356333e-05
  34    9.9111439244766e-05
  35    0.00016621719231794
  36    -0.00071382324987847
  37    5.0425046313735e-06
  38    -3.3615140182532e-05
  39    -4.2048513276389e-05
  40    3.3505981203366e-05
  41    -0.00041721777955643
  42    0.00013934094267466
  43    1.807908767165e-05
  44    -1.2241133198697e-05
  45    -3.0756070786008e-06
  46    1.7307503840501e-05
  47    1.1674418464499e-05
  48       1.0010247611495
  49    0.00088358913467117
  50    -0.0056509132533145
  51    -0.00073806525012847
  52    -0.0018592105933344
  53     0.001145865826257
  54    0.00026864796584392
  55    0.00057559011399457
  56    -0.00025910290771512
  57    1.3621361405549e-05
  58    4.050520059641e-05
  59    8.3714786762682e-05
  60    7.3916245182457e-05
  61    -5.9145298238031e-05
  62    2.3983648900437e-06
  63    9.8408925598525e-06
  64    0.00010978865742025
  65    2.6968830131494e-05
  66    8.5988351693739e-06
  67    4.055971673138e-06
  68    -2.7297711596916e-05
  69    3.3148969213628e-05
  70    3.8976368845417e-05
  71    1.3196446519074e-06
  72    4.4629541152565e-06
  73    4.1312495976945e-06
  74    -1.687273074577e-05
  75    -4.9136078944823e-06
  76    5.962570294256e-05
  77    6.1412096659846e-05
  78    -3.962992215045e-05
  79    5.0572112748758e-06
  80    -9.0297672712996e-06
  81    -2.5251836145037e-05
  82    -4.2951379569971e-05
  83    0.00015080412988153
  84    -1.3088433926422e-05
  85    8.2435905766237e-06
  86    -1.0044266839033e-05
  87    0.00015741770697634
  88    2.5284750482736e-05
  89    -4.147982196835e-05
  90    -2.9196060507176e-06
  91    -1.5568716402376e-07
  92    -1.0676483285473e-05
  93    -3.7563539366083e-06
  94    9.048729234004e-07
 Sym= A
 Ene=               3
 Spin= Alpha
 Occup=    1.00000
   1    -0.00018668743368742
   2    0.00027714330056815
   3    0.0036013454685155
   4    -0.00039040153122217
   5    -0.00035047779903052
   6    0.00087845003576657
   7    0.00019572932103646
   8    -0.0008926207386951
   9    0.0013241085196281
  10    9.7293229768085e-05
  11    -7.4224323916321e-05
  12    -6.056708321647e-05
  13    1.1278908443168e-05
  14    4.9021151128408e-05
  15    7.9388637481418e-05
  16    0.00011129485616059
  17    -0.0015508928895384
  18    0.00014196128695903
  19    -1.6232346340247e-05
  20    3.5167543360158e-05
  21    0.00065497898058483
  22    0.00019567661046391
  23    -0.00026895200847835
  24    9.2307523725129e-05
  25    3.7918787621596e-05
  26    -3.0942039985119e-05
  27    -1.8223638824183e-05
  28    -1.4075540747485e-05
  29    5.9647869623246e-05
  30    6.1201785070783e-05
  31    3.9633838489188e-05
  32    -8.0119910502175e-06
  33    6.5515215297885e-06
  34     2.39659194282e-06
  35    9.8398298613272e-06
  36    0.00010981302261091
  37    -2.6981692858653e-05
  38    5.4896871742602e-06
  39    7.7556717070711e-06
  40    2.7255470568278e-05
  41    4.4152511368771e-05
  42    2.5853079830161e-05
  43    1.2349103097211e-05
  44    5.6136395131795e-06
  45    6.3768201385365e-06
  46    -1.0506080825903e-05
  47    -3.539917087317e-06
  48    -2.5250661020776e-05
  49    -4.2940307287457e-05
  50     0.000150857924469
  51    1.3068134339845e-05
  52    -8.4738574985275e-06
  53    9.8650288070921e-06
  54    -0.00015744517708605
  55    -3.6471823421096e-05
  56    3.2090813629222e-05
  57    7.6469473170331e-06
  58    -9.1689923405901e-07
  59    -8.5241478815358e-06
  60    2.3420045188964e-06
  61    -6.6752468681271e-09
  62    9.910475152488e-05
  63    0.0001662053223339
  64    -0.00071379574345534
  65    -5.0764940632629e-06
  66    -4.7281975026413e-05
  67    -2.5774987173376e-05
  68    -3.3518920287132e-05
  69    6.4750905575597e-05
  70    -0.00043506756847106
  71    -2.1829491123167e-05
  72    -1.3619638434077e-05
  73    -1.119618831616e-05
  74    -5.7426096189564e-06
  75    1.0021822159972e-05
  76    -0.00022176210480009
  77    -7.8661110742371e-05
  78    9.6333918878978e-06
  79    7.4479473379976e-05
  80    -0.00014300233429222
  81       1.0010247624869
  82    0.00087849109511063
  83    -0.0056569110418489
  84    0.00073980133891395
  85    0.00080684239379334
  86    -0.0020331162570152
  87    -0.00026748647356706
  88    -0.00015440022949103
  89    0.00060970882264596
  90    -9.3011889092986e-05
  91    6.5218864513354e-05
  92    6.1937684864893e-05
  93    1.2317883047376e-05
  94    -2.9594520940682e-05
 Sym= A
 Ene=               4
 Spin= Alpha
 Occup=    1.00000
   1    -0.00018758020754225
   2    0.0002886749846302
   3    0.0035962780984779
   4    -0.00040724854330579
   5    -0.00065197332101475
   6    -0.00071940712947563
   7    0.00019620389604424
   8    -0.0012779401048529
   9    -0.0010054490122165
  10     3.60134573812e-05
  11    5.646629710421e-05
  12    9.8913670654858e-05
  13    -1.9108830896614e-05
  14    5.626369289598e-05
  15    6.2954616984524e-05
  16    7.7827565006021e-05
  17    -0.0015164483970339
  18    0.00013292097060898
  19    8.1424652261144e-06
  20    5.8042962377181e-07
  21    0.00061349742116861
  22    0.00039095272014027
  23    0.00033171617945084
  24    3.3996943692951e-05
  25    -1.7179345476879e-06
  26    5.7397728676671e-05
  27    -3.5401104608341e-05
  28    -3.7619640602964e-05
  29    5.8547711165772e-05
  30    -4.0414455053798e-06
  31    -2.9169426986746e-05
  32    -5.6672353018249e-05
  33    -1.4999091750793e-05
  34    -5.0397140137967e-05
  35    -0.00010230577745575
  36    0.00032534306334391
  37    1.4822647993529e-05
  38    -3.3824766563619e-05
  39    -3.9140107248905e-06
  40    8.1624841446182e-07
  41    9.4645679076118e-05
  42    9.1730077315092e-06
  43    1.3663403298999e-05
  44    2.8094673978892e-06
  45    -5.4895572483062e-06
  46    -1.0588417794015e-05
  47    2.4248297148234e-06
  48    1.9860944060283e-06
  49    1.0576103959432e-05
  50    8.9030758570533e-05
  51    -2.0515042546239e-05
  52    -9.6913939481261e-06
  53    1.0416473581008e-05
  54    -1.5527761746987e-05
  55    -5.8258640301647e-05
  56    -9.8942777699589e-06
  57    -3.2767086738889e-06
  58    -5.1187205296304e-06
  59    -1.7166139709066e-06
  60    -1.6209218521982e-05
  61    -2.3484088938424e-06
  62       1.0010195811942
  63    0.00076880881693427
  64    -0.0057604049036854
  65    0.00069346869472658
  66    0.0015241445280063
  67    0.0017019174158107
  68    -0.00026597517981386
  69    -0.00033912959410003
  70    -0.00048980764774691
  71    -4.1382575437968e-05
  72    -5.2849965124085e-05
  73    -9.3920107306351e-05
  74    4.2474429208333e-05
  75    -5.4027866088806e-05
  76    -0.00025063456788993
  77    -8.2447490228352e-05
  78    4.3287079719191e-06
  79    0.00012176936531925
  80    0.00011327529788131
  81    9.628953797543e-05
  82    0.00016007012979829
  83    -0.00068768973170493
  84    -6.263754790323e-07
  85    -3.2949782434296e-05
  86    4.4516918139631e-05
  87    -4.8499618078407e-05
  88    0.00020463932176839
  89    0.00037868061642519
  90    -2.182244643876e-05
  91    9.9579645385488e-06
  92    -5.3892501224033e-06
  93    -7.9772591500567e-06
  94    1.3338129855438e-05
 Sym= A
 Ene=               5
 Spin= Alpha
 Occup=    1.00000
   1    6.2954709764352e-05
   2    7.7817762430479e-05
   3    -0.0015164860617632
   4    -0.00013295501758452
   5    1.9775832823432e-06
   6    7.9012852680932e-06
   7    -0.00061351545030539
   8    0.00039455584248969
   9    0.00032737643531689
  10    -2.733077774468e-06
  11    3.673900912228e-05
  12    4.9917858444248e-05
  13    -5.6602265081179e-05
  14    8.2090273337988e-06
  15    -0.00018754421104357
  16    0.00028891229248131
  17    0.0035962918934687
  18    0.00040734006617495
  19    -0.00082202177826986
  20    -0.0005172975278047
  21    -0.0001962124779732
  22    -0.0012121620653894
  23    -0.0010838668822619
  24    -2.9658342598586e-05
  25    -4.5589470857511e-05
  26    8.5550040729206e-05
  27    -5.7047090392893e-05
  28    -6.5378087219348e-05
  29    -0.00025066833114075
  30    -8.2538479488821e-05
  31    -4.3231305870692e-06
  32    0.00013269124678097
  33    0.00010024300269208
  34        1.001019580466
  35    0.00076734494604103
  36    -0.0057621302514832
  37    -0.00069417734864605
  38    0.0019411070158556
  39    0.0012065665070255
  40    0.00026549217868865
  41    -0.00054100965965001
  42    -0.00024817107722533
  43    1.0971403078292e-05
  44    4.4012498603121e-05
  45    -8.3236445749534e-05
  46    7.269421492559e-05
  47    6.1412780611469e-05
  48    9.6285161770356e-05
  49    0.00016007506399488
  50    -0.00068761969569085
  51    6.1397031764026e-07
  52    3.8092833220033e-05
  53    -4.0163636502314e-05
  54    4.8484943560062e-05
  55    0.00040843288623889
  56    0.00013579076998626
  57    1.8217108113409e-05
  58     -1.1404035088e-05
  59    2.7626606591292e-06
  60    1.5138001772984e-05
  61    -1.2121975407384e-05
  62    -5.039528287267e-05
  63    -0.00010230292129421
  64    0.00032532693156804
  65    -1.4816014838428e-05
  66    -9.7389175715284e-06
  67    -3.2646638831994e-05
  68    -8.1819401026887e-07
  69    2.546286356011e-05
  70    9.1609981528838e-05
  71    4.3056960173517e-06
  72    -1.8995449278097e-06
  73    -7.3946482741307e-06
  74    -1.5991466662922e-05
  75    -3.1880335302919e-06
  76    5.8571665654177e-05
  77    -4.005858920689e-06
  78    2.9167680319205e-05
  79    -2.4611575340901e-05
  80    -5.3205688437261e-05
  81    1.9854531719718e-06
  82    1.0576490154592e-05
  83    8.9045668603827e-05
  84    2.0519603509807e-05
  85    8.5813313958503e-06
  86    -1.1348550543433e-05
  87    1.5532802512528e-05
  88    -1.985457131377e-05
  89    -5.565345347033e-05
  90    1.5613089626915e-05
  91    1.424594142426e-06
  92    2.1294665347885e-06
  93    -5.3039326101813e-06
  94    5.4478068687497e-06
 Sym= A
 Ene=               6
 Spin= Alpha
 Occup=    1.00000
   1    -0.0028125473559159
   2    0.00023596131634315
   3     0.037436327818944
   4    0.0024397876385409
   5    -0.0034164719469119
   6    -0.0011849567238546
   7     0.046160611042956
   8    -0.003867955905014
   9     0.020520202388889
  10    -0.0067363401627325
  11    -0.024777668128921
  12     0.011593259246661
  13    -0.029116449378435
  14    -0.015379300323864
  15    -0.00085755089854725
  16     -0.02566793370117
  17    -0.081195092942105
  18     0.048757508939079
  19     0.004403603096468
  20     0.005025947713467
  21     0.053296526675838
  22    -0.0056665960359714
  23    -0.014079047614533
  24    0.00073118746013177
  25    -0.0012844717349796
  26    0.00071068064521854
  27    -0.00063062059868272
  28    -0.0023923070778981
  29     0.012974854663048
  30     0.015093804811344
  31    0.0024203969798511
  32    0.0008247880238715
  33    -0.00089546210141067
  34    -0.0011409314740907
  35    -0.0072328844366225
  36     -0.00573225804729
  37      0.01253874732544
  38    0.00046757801241292
  39    0.0011621697943145
  40    -0.00040841417392557
  41    -0.0036700797359025
  42    0.00023471103051353
  43    -0.00051415290161278
  44    0.0010170682192515
  45    -0.00025321328302124
  46     0.001589218989449
  47    0.0010038715128101
  48    -2.3178173985617e-05
  49    0.00089989647864097
  50    0.0022611449231701
  51    -0.004313500206335
  52    -0.0027124627153127
  53     0.001121894831168
  54    -0.0090051455612018
  55    -0.0015520358743468
  56    0.0036646621809495
  57    0.00025760414118918
  58    0.00028436178721906
  59    -0.00028235709926227
  60    -0.00020083737681897
  61    -0.00057767570034995
  62    -0.0009326743992585
  63    -0.0075126505635493
  64    0.0015362501922597
  65      0.54856137345377
  66      -0.3730207640981
  67     0.095989522001472
  68      0.37903655144444
  69     -0.25600288976855
  70     0.068513973962377
  71    0.0024412920722826
  72    0.0091774009815922
  73    -0.0041964451972823
  74    0.0086027619820622
  75    0.0048620636567839
  76      0.05035104541512
  77     0.047770191900823
  78    -0.0020574455673382
  79    -0.0010005327192926
  80    -0.0030095114094261
  81    0.00081197263980393
  82    9.7241632463566e-05
  83    -0.010537854704702
  84    -0.0038370288187945
  85    0.0018361396804366
  86    0.0021775931712812
  87    -0.0073010211359563
  88    -0.0011927532135022
  89    0.0019487714690281
  90    -4.5986840648853e-05
  91    -0.00029834692801663
  92    0.00022465791963148
  93    -0.00068308490125581
  94    -0.00031399021325749
 Sym= A
 Ene=               7
 Spin= Alpha
 Occup=    1.00000
   1    0.00085743857536105
   2     0.025667413860362
   3     0.081195104387001
   4     0.048756575643662
   5    -0.0057140573086897
   6    -0.0034639717605291
   7     0.053296417450295
   8     0.014848917639013
   9    0.0031354459562764
  10    1.3352061132165e-05
  11    -0.0021328750579382
  12    -0.00055909216257118
  13    0.0010604588640006
  14    -0.0016803685991654
  15     0.002812470451539
  16    -0.00023673920574066
  17    -0.037437522686044
  18    0.0024392565382245
  19    0.0017594125574613
  20    0.0031594590327905
  21     0.046160319744074
  22    -0.019538061824174
  23    0.0073734362665455
  24    -0.024085546585267
  25    -0.010842587159156
  26    -0.017869007796465
  27     0.011320895745611
  28    -0.027071497115895
  29    -0.050351889997111
  30    -0.047770716355169
  31    -0.0020574697012706
  32    0.0031375775028383
  33    0.00046273867603838
  34    0.00093263212083469
  35     0.007515255771053
  36    -0.001533115137851
  37      0.54855135815534
  38    -0.029770323974747
  39      0.38403530843595
  40      0.37902960214728
  41    -0.023027867647392
  42      0.26402007250578
  43    0.0070930772235746
  44    0.0031943304144074
  45    0.0061377167536002
  46    -0.0030979350510769
  47    0.0098821823045661
  48    -0.00081203360854797
  49    -9.6782143613157e-05
  50     0.010539613328277
  51    -0.0038373562610902
  52    -0.0024646554907604
  53    -0.0014295447010749
  54    -0.0073013204084797
  55    -0.0017133498561898
  56    0.0015135056013273
  57    -0.00052810692289638
  58    -0.00025739747289948
  59    -0.00034156244458092
  60    0.00035164327733135
  61    -0.00034832264023214
  62     0.001140949084446
  63    0.0072328223844585
  64    0.0057319093269756
  65     0.012538502723888
  66    -0.0012255802838368
  67    -0.00025884628345086
  68    -0.00040857087520972
  69    0.00040612036244455
  70     0.003654920773367
  71    0.0010259658005565
  72    0.00081200622062153
  73    0.00035741501832656
  74    -0.0012937081019924
  75    0.0011759043127608
  76    -0.012974424862502
  77    -0.015093266934543
  78    0.0024203966948668
  79    0.00073858977583058
  80    -0.00096773212793007
  81    2.3196924998699e-05
  82    -0.00089983883431683
  83    -0.0022612218292762
  84    -0.0043134495858218
  85    -0.00063372048529608
  86    0.0028661314142017
  87    -0.0090051662382837
  88    -0.0033393906309837
  89    0.0021648995586754
  90    -0.00013516796096219
  91    -0.00061826389379248
  92    0.00030727986613347
  93    0.00027151419836547
  94    0.00017971834206503
 Sym= A
 Ene=               8
 Spin= Alpha
 Occup=    1.00000
   1    -0.0029414433364262
   2    -0.0035964482180676
   3     0.014167480289937
   4    0.00069970369874115
   5    0.00058866156926829
   6    -0.00050214923793213
   7     0.035060102742722
   8    -0.0091454765107633
   9    -0.015073546369014
  10    0.0050077974232581
  11     0.027875466557655
  12    -0.020459756191587
  13    -0.022571704877892
  14    -0.0059846807594806
  15    -0.0021243955145183
  16    -0.034889346407265
  17    -0.080658227445496
  18     0.043624599876639
  19    0.00039302483686871
  20    -0.0079634293012611
  21     0.024685956461957
  22    -0.014709267148534
  23     0.011913502727212
  24    0.0010079020668599
  25    0.00062594558237605
  26    -0.0012215526359803
  27    -0.0015354975397893
  28    -0.0013039193707429
  29    -0.012044329493378
  30     0.015885278852627
  31    -0.0022989324926457
  32    -0.0004686761484049
  33    0.0020826400703454