[Molden Format]
made by pyscf v[2.0.1]
[Atoms] (AU)
C   1   6     0.00000000000000     0.00000000000000     0.00000000000000
C   2   6     2.85272299873892     0.00000000000000     0.00000000000000
H   3   1     3.62066923017674     0.00000000000000     1.90331545357504
F   4   9     3.65943188126013    -2.04308229183900    -1.24074875274501
F   5   9     3.65943188126013     2.04308229183900    -1.24074875274501
F   6   9    -0.80670888252121    -0.86712147444210    -2.22749704090169
H   7   1    -0.76794623143782     1.87439981510865     0.33050726003861
F   8   9    -0.80670888252121    -1.57667650804493     1.79658952118831
[GTO]
1 0
 s    8 1.00
                  6665  0.00069158396281299
                  1000  0.0053257961529341
                   228   0.027060721042034
                 64.71    0.10165684614077
                 21.06     0.2745748236174
                 7.495    0.44829431892377
                 2.797    0.28490261071525
                0.5215   0.015194859206082
 s    8 1.00
                  6665  -0.00029326965268655
                  1000  -0.0023180354739745
                   228  -0.011499786038565
                 64.71  -0.046826727009787
                 21.06   -0.12846616875047
                 7.495   -0.30126627246289
                 2.797   -0.25563070233011
                0.5215      1.093793361012
 s    1 1.00
                0.1596                   1
 p    3 1.00
                 9.439   0.056979251590039
                 2.002    0.31320721150073
                0.5456    0.76037674173753
 p    1 1.00
                0.1517                   1
 d    1 1.00
                  0.55                   1

2 0
 s    8 1.00
                  6665  0.00069158396281299
                  1000  0.0053257961529341
                   228   0.027060721042034
                 64.71    0.10165684614077
                 21.06     0.2745748236174
                 7.495    0.44829431892377
                 2.797    0.28490261071525
                0.5215   0.015194859206082
 s    8 1.00
                  6665  -0.00029326965268655
                  1000  -0.0023180354739745
                   228  -0.011499786038565
                 64.71  -0.046826727009787
                 21.06   -0.12846616875047
                 7.495   -0.30126627246289
                 2.797   -0.25563070233011
                0.5215      1.093793361012
 s    1 1.00
                0.1596                   1
 p    3 1.00
                 9.439   0.056979251590039
                 2.002    0.31320721150073
                0.5456    0.76037674173753
 p    1 1.00
                0.1517                   1
 d    1 1.00
                  0.55                   1

3 0
 s    3 1.00
                 13.01   0.033498726389998
                 1.962    0.23480080117413
                0.4446     0.8136829578829
 s    1 1.00
                 0.122                   1
 p    1 1.00
                 0.727                   1

4 0
 s    8 1.00
                 14710  0.00072067370873197
                  2207  0.0055504869689163
                 502.8   0.028254207662589
                 142.6    0.10639582836653
                 46.47    0.28668420124307
                  16.7    0.44843796582416
                 6.356    0.26464118141135
                 1.316   0.015326060993048
 s    8 1.00
                 14710  -0.00032119389049893
                  2207  -0.0025461915683188
                 502.8  -0.012643359507821
                 142.6   -0.05195749170489
                 46.47   -0.14344713812646
                  16.7   -0.33243762329603
                 6.356   -0.21865906750347
                 1.316     1.0955904138622
 s    1 1.00
                0.3897                   1
 p    3 1.00
                 22.67   0.064834021493887
                 4.977    0.34053535983101
                 1.347    0.73464640679382
 p    1 1.00
                0.3471                   1
 d    1 1.00
                  1.64                   1

5 0
 s    8 1.00
                 14710  0.00072067370873197
                  2207  0.0055504869689163
                 502.8   0.028254207662589
                 142.6    0.10639582836653
                 46.47    0.28668420124307
                  16.7    0.44843796582416
                 6.356    0.26464118141135
                 1.316   0.015326060993048
 s    8 1.00
                 14710  -0.00032119389049893
                  2207  -0.0025461915683188
                 502.8  -0.012643359507821
                 142.6   -0.05195749170489
                 46.47   -0.14344713812646
                  16.7   -0.33243762329603
                 6.356   -0.21865906750347
                 1.316     1.0955904138622
 s    1 1.00
                0.3897                   1
 p    3 1.00
                 22.67   0.064834021493887
                 4.977    0.34053535983101
                 1.347    0.73464640679382
 p    1 1.00
                0.3471                   1
 d    1 1.00
                  1.64                   1

6 0
 s    8 1.00
                 14710  0.00072067370873197
                  2207  0.0055504869689163
                 502.8   0.028254207662589
                 142.6    0.10639582836653
                 46.47    0.28668420124307
                  16.7    0.44843796582416
                 6.356    0.26464118141135
                 1.316   0.015326060993048
 s    8 1.00
                 14710  -0.00032119389049893
                  2207  -0.0025461915683188
                 502.8  -0.012643359507821
                 142.6   -0.05195749170489
                 46.47   -0.14344713812646
                  16.7   -0.33243762329603
                 6.356   -0.21865906750347
                 1.316     1.0955904138622
 s    1 1.00
                0.3897                   1
 p    3 1.00
                 22.67   0.064834021493887
                 4.977    0.34053535983101
                 1.347    0.73464640679382
 p    1 1.00
                0.3471                   1
 d    1 1.00
                  1.64                   1

7 0
 s    3 1.00
                 13.01   0.033498726389998
                 1.962    0.23480080117413
                0.4446     0.8136829578829
 s    1 1.00
                 0.122                   1
 p    1 1.00
                 0.727                   1

8 0
 s    8 1.00
                 14710  0.00072067370873197
                  2207  0.0055504869689163
                 502.8   0.028254207662589
                 142.6    0.10639582836653
                 46.47    0.28668420124307
                  16.7    0.44843796582416
                 6.356    0.26464118141135
                 1.316   0.015326060993048
 s    8 1.00
                 14710  -0.00032119389049893
                  2207  -0.0025461915683188
                 502.8  -0.012643359507821
                 142.6   -0.05195749170489
                 46.47   -0.14344713812646
                  16.7   -0.33243762329603
                 6.356   -0.21865906750347
                 1.316     1.0955904138622
 s    1 1.00
                0.3897                   1
 p    3 1.00
                 22.67   0.064834021493887
                 4.977    0.34053535983101
                 1.347    0.73464640679382
 p    1 1.00
                0.3471                   1
 d    1 1.00
                  1.64                   1

[5d]
[7f]
[9g]

[MO]
 Sym= A
 Ene=               0
 Spin= Alpha
 Occup=    1.00000
   1       1.0019125108926
   2    0.0042251085111336
   3    -0.0074399722564684
   4    -0.00059557635782117
   5    -0.0010565432575394
   6    -0.00014482514560308
   7    -0.0015817328345352
   8    -0.00056900121192675
   9    1.4831676035975e-05
  10    0.00030946624245809
  11    2.5685035464153e-05
  12    -8.1151406969131e-05
  13    -0.0001095568556659
  14    0.00011251248169587
  15    -0.0002294268422637
  16    3.2827038962356e-05
  17    0.0032770804978067
  18    -0.00048254567544178
  19    1.6553238535781e-05
  20    -1.9821624672955e-06
  21    -0.0015811042707878
  22    7.8916104072584e-05
  23    -0.00032074306846569
  24    -8.1589030926959e-05
  25    -4.6302314999441e-05
  26    1.4402212145379e-05
  27    5.4413069271107e-05
  28    -0.00011176698582385
  29    -2.1757912259524e-05
  30    0.00037640751646517
  31    -9.5305474944333e-05
  32    -1.2643860411921e-06
  33    -6.7176480359562e-05
  34    5.588239514967e-08
  35    1.5825453816535e-05
  36    -0.00019163130567021
  37    -2.9991700467592e-05
  38    1.6197162793033e-05
  39    1.8938626331781e-06
  40    -7.7817846525287e-05
  41    -0.00011165356206143
  42    -1.7697347418319e-05
  43    -1.7507792158294e-05
  44    -9.4403208343965e-06
  45    -9.9587494522702e-07
  46    3.3732528929011e-05
  47    -1.5101231200233e-05
  48    1.252196086614e-06
  49    1.0116860145474e-05
  50    -0.00020162435327558
  51    -1.48106291955e-07
  52    -5.5195837948417e-06
  53    -3.1859800210281e-06
  54    -4.5292080589453e-05
  55     3.74391023717e-05
  56    -2.8309659858976e-05
  57    -1.6420000055978e-05
  58    -4.8025006882832e-06
  59    -1.4760363870766e-05
  60    2.1204603985086e-05
  61    1.2286291176023e-05
  62    0.0001403544661352
  63    0.0006459894903232
  64    -3.7303869075331e-05
  65    8.382735765945e-05
  66    9.1621566209012e-05
  67    0.00032618090077521
  68    -0.0001613936042079
  69    -0.00026956622629064
  70    -0.00079824938782933
  71    -0.00012041311685319
  72    -7.2616632148564e-05
  73    -7.9223129634605e-05
  74    -1.251646340725e-05
  75    -1.6650527290582e-05
  76    0.00091886419594083
  77    0.0015006983538912
  78    0.00021768330363894
  79    -4.7980689781535e-05
  80    -1.9702621538095e-05
  81    0.00015257844110724
  82    0.00067094243425761
  83    -0.00013033256168084
  84    7.3907509195748e-05
  85    0.0002011444117468
  86    -0.00027061443496931
  87    -0.00013767601655116
  88    -0.00056878924175371
  89    0.00065984447514581
  90    -5.4240271269395e-05
  91    6.4648751513057e-05
  92    0.00013563530117921
  93    3.1166390119024e-05
  94    -4.2675446346352e-05
 Sym= A
 Ene=               1
 Spin= Alpha
 Occup=    1.00000
   1    -0.00022942697943057
   2    3.2811511568156e-05
   3    0.0032770741600146
   4    0.00048251170989296
   5    -4.8308610521977e-06
   6    1.5953120266263e-05
   7    0.0015811014436536
   8    -0.00032957044708525
   9    2.201969935399e-05
  10    -4.3284365825747e-06
  11    0.0001181097866795
  12    -1.328078759469e-06
  13    9.9013210613019e-05
  14    2.6190114695954e-05
  15       1.0019125100674
  16     0.004225088290482
  17    -0.0074399860897493
  18    0.00059562405164551
  19    4.0831852506311e-05
  20    -0.0010656077291001
  21    0.0015817542817023
  22    0.0001134058456133
  23    -0.00055777362695577
  24    -7.2755866393694e-05
  25    -0.00011526360251778
  26    -3.3299557153865e-06
  27    -0.0003302324518017
  28    -5.7619734840215e-06
  29    0.00091888729581541
  30    0.0015007064527668
  31    -0.00021768392044069
  32    -1.1071190797972e-05
  33    -5.0674716749896e-05
  34    0.00014041494212091
  35    0.00064600960657814
  36    -3.7283340846496e-05
  37    -8.3744932420238e-05
  38    0.00030529957777508
  39    0.00014693452074539
  40    0.00016144748395091
  41    -0.0007393238636558
  42    -0.00040404301918636
  43    4.1808972441707e-05
  44    2.9008002750241e-05
  45    -0.0001122507953991
  46    8.1141131878099e-05
  47    6.8624247884212e-05
  48    0.00015256732976884
  49    0.00067092993742726
  50    -0.00013034089544474
  51    -7.3895900191183e-05
  52    -0.00030141661056457
  53    0.00015109373897611
  54    0.00013767986999016
  55    0.00074859795924602
  56    -0.00044556940457277
  57    3.8665332159493e-05
  58    3.0801529844029e-05
  59    0.0001167196178573
  60    8.4805338231068e-05
  61    -7.1078322690898e-05
  62    4.6161100819648e-08
  63    1.5808974184876e-05
  64    -0.00019164932651396
  65    3.0028034217239e-05
  66    -9.3669399495947e-07
  67    1.6287420320455e-05
  68    7.7844219264018e-05
  69    1.9672333855683e-06
  70    -0.00011302508802885
  71    -2.0665032110445e-05
  72    1.651148765325e-05
  73    -3.5268646925482e-07
  74    3.1909330391926e-05
  75    6.6749011269783e-06
  76    -2.175686160163e-05
  77    0.00037641111624323
  78    9.5304697503704e-05
  79    -6.5936333772897e-05
  80    -1.2910357557632e-05
  81    1.2530025654678e-06
  82    1.0118696081122e-05
  83    -0.00020161903183255
  84    1.6356974017048e-07
  85    -2.1835802976685e-06
  86    -5.9955126817971e-06
  87    4.5304176472471e-05
  88    -3.4383902610577e-05
  89    3.1949072602026e-05
  90    -1.4714414123884e-05
  91    -1.1265709325145e-05
  92    -1.510767440161e-05
  93    2.218920236106e-05
  94    6.8629310934661e-06
 Sym= A
 Ene=               2
 Spin= Alpha
 Occup=    1.00000
   1    -0.00018428200747785
   2    0.00027764524388365
   3    0.0035276778389286
   4    -0.00039259586640387
   5    -0.00062266510823792
   6    0.00070045530115393
   7    0.00018934914747206
   8     -0.00133683279036
   9    0.00093422876505567
  10    4.3321823366417e-05
  11    -6.3093554783623e-05
  12    -0.00010687740016176
  13    -1.2858481810933e-05
  14    8.1226021217031e-05
  15    5.6621829313348e-05
  16    7.2871038309258e-05
  17    -0.0013540662767875
  18    0.00014349603295331
  19    -2.3934453474228e-05
  20    1.5922858046563e-05
  21    0.00063970385845971
  22    0.00024120330197453
  23    -0.00010617535571093
  24    6.2843366797163e-05
  25    2.0964454770168e-05
  26    -4.2426785947185e-05
  27    -5.3589747255928e-05
  28    -1.8129677181716e-05
  29    4.194510522776e-05
  30    -4.7186672756036e-05
  31    5.2357821868643e-05
  32    8.025188753661e-07
  33    3.8403239319653e-06
  34    1.9028032387911e-05
  35     3.98503222328e-05
  36    3.8054687925761e-05
  37    -3.7421850523102e-05
  38    -1.779989024688e-06
  39    2.3593960740512e-06
  40    0.0001074227694298
  41    4.1809189346437e-05
  42    -7.6738590684456e-07
  43    1.0580281743027e-05
  44    1.0514263631269e-05
  45    -5.8588722722483e-07
  46    -1.7882326037784e-05
  47    -1.3235935570039e-06
  48    -3.2236367351909e-05
  49    -5.8266662585425e-05
  50    0.00016034397846767
  51    2.2355033849275e-05
  52    -5.7365416607205e-06
  53    7.2244117619497e-06
  54    -0.00017714741089349
  55    -3.1499044446765e-05
  56    1.8852297199583e-05
  57    3.5127854655861e-06
  58    2.2209984447417e-07
  59    -2.6832905464075e-06
  60    3.237776775481e-06
  61    -3.1712192832905e-06
  62    9.754191909425e-05
  63    0.00016255938589869
  64    -0.00070739845645828
  65    -6.4063208339292e-06
  66    -3.6577761423367e-05
  67    -4.1735379975727e-05
  68    -2.9019123765272e-05
  69    0.00021787664873412
  70    -0.00038576686217067
  71    -2.3454690723096e-05
  72    -9.3566132197982e-06
  73    6.8654821456229e-06
  74    -7.5305752090872e-06
  75    1.4498423701611e-05
  76    -0.00020544480322122
  77    -3.9813764446067e-05
  78    1.4378079232068e-05
  79    0.00011329141732162
  80    -0.00011273646208839
  81        1.001029352165
  82    0.00091634051471304
  83    -0.0056460150649958
  84    0.00070066592204774
  85    0.0014473257547342
  86    -0.0016324631877554
  87    -0.00031077216660188
  88    -0.00036378684469932
  89    0.00053595765555186
  90    -4.3114993650701e-05
  91    5.3358239732254e-05
  92    9.7046817505642e-05
  93    3.8812226146311e-05
  94    -5.1717934067516e-05
 Sym= A
 Ene=               3
 Spin= Alpha
 Occup=    1.00000
   1    5.6621185403428e-05
   2    7.2793500282521e-05
   3    -0.0013540819063224
   4    -0.00014345124285626
   5    1.9720192087131e-05
   6    -2.0838209451555e-05
   7    -0.00063934828014804
   8    -0.00014680568109136
   9    0.00021902203898009
  10    3.8669652202934e-06
  11    1.424079539232e-05
  12    -3.0417526246653e-05
  13    -8.7636381267104e-05
  14    -2.3817195153733e-05
  15    -0.00018435285172043
  16    0.00027683082830066
  17    0.0035271119900469
  18    0.00039212574408722
  19    0.00079755141092483
  20    -0.0004908802066791
  21    -0.00018925696226419
  22    0.0011527430284368
  23    -0.0011539633717982
  24    -4.0941862537135e-05
  25    -6.8908311114048e-05
  26    -8.9486262933821e-05
  27    -6.1544700129939e-05
  28    7.6215345731775e-05
  29    -0.00020599331148374
  30    -4.0149163137134e-05
  31    -1.4412474000002e-05
  32    -0.0001307574791838
  33    9.2012119014673e-05
  34    9.7524699421762e-05
  35    0.0001627636451599
  36    -0.00070673386481465
  37    6.2845154949993e-06
  38    -3.4190054200521e-05
  39    -4.307755592665e-05
  40    2.8915392230511e-05
  41    -0.00041721198386754
  42    0.00014774085314544
  43    1.9027369410895e-05
  44    -1.2652662950883e-05
  45    -1.7761761950669e-06
  46    1.7008609550271e-05
  47    1.1729102346412e-05
  48       1.0010293498154
  49    0.00091977836047552
  50    -0.0056419669431695
  51    -0.00070074497712913
  52    -0.0018519889458875
  53     0.001147797407445
  54    0.00031067741764447
  55    0.0005957667336465
  56    -0.00026105192457729
  57    1.5899905893298e-05
  58    4.1613986965407e-05
  59    8.5045364561642e-05
  60    7.2928714860406e-05
  61    -6.1585265597773e-05
  62    1.9037820578004e-05
  63    3.9886696202627e-05
  64    3.8046703142008e-05
  65    3.7462222691323e-05
  66    2.6839176888985e-06
  67    -1.3157554603358e-06
  68    -0.00010742519323719
  69    -7.9719753305761e-06
  70    4.1067067828734e-05
  71    1.0036608595935e-05
  72    -5.1883363436586e-07
  73    -4.74666394272e-07
  74    -1.8197235190885e-05
  75    -1.0586736159338e-05
  76    4.1859807841324e-05
  77    -4.6806003306314e-05
  78    -5.2326989478606e-05
  79    3.6436294253922e-06
  80    1.4515502754167e-06
  81    -3.2233710679504e-05
  82    -5.8164803159224e-05
  83    0.00016044409645439
  84    -2.2372177376456e-05
  85    8.0975690607215e-06
  86    -4.3251031947781e-06
  87    0.00017711143953743
  88    2.4057663718474e-05
  89    -2.7698648561799e-05
  90    -5.1107184404894e-06
  91    3.0837425220505e-06
  92    -9.2717114709147e-07
  93    -1.7418101907309e-06
  94    -7.7019496630775e-07
 Sym= A
 Ene=               4
 Spin= Alpha
 Occup=    1.00000
   1    -0.00016590569713595
   2    0.00036579012078239
   3    0.0032926481868862
   4    -0.00044582755981372
   5    -0.00039064712705336
   6    -0.00095976278536424
   7    9.0543698205676e-05
   8    -0.00085930075081967
   9    -0.0013978078044828
  10    9.4864886289026e-05
  11    8.8350146178526e-05
  12    7.290752387523e-05
  13    6.8771105871528e-06
  14    3.5564586587831e-05
  15    3.8455550522549e-05
  16    4.0329502865081e-05
  17    -0.0012053001944501
  18    0.00016081514798166
  19    2.1462161875981e-06
  20    -4.039254635207e-06
  21    0.00038368026799639
  22    0.00025392375698552
  23    0.00032224476155606
  24    6.2383963067215e-05
  25    -4.0827220705584e-07
  26    3.7530093506961e-05
  27    -3.2480373958918e-05
  28    -2.8599675396222e-05
  29    2.2595728508262e-05
  30    8.473012891367e-05
  31    -1.9607236313631e-05
  32    -3.6658048645911e-05
  33    -1.3201110656544e-05
  34    -1.3903052799651e-05
  35    -3.0740870145975e-05
  36    0.00016300147245086
  37    -1.5304551217472e-05
  38    -3.3393818196984e-05
  39    2.2272421699315e-07
  40    0.00011375850696931
  41    7.8673542606461e-05
  42    -4.3206047076994e-06
  43    1.6861125751088e-05
  44    2.2671107727304e-06
  45    -2.7461503804018e-06
  46    -1.5546612345647e-05
  47    8.7926510152546e-06
  48    1.7483784630862e-05
  49    3.835120490756e-05
  50    2.4018455284501e-05
  51    -3.533053584592e-05
  52    4.5171815119238e-08
  53    7.7069014419499e-06
  54    8.8510294545733e-05
  55    -4.2684328125556e-05
  56    3.355327100264e-07
  57    5.0838878787175e-06
  58    -4.0304069135797e-06
  59    -3.483635684326e-06
  60    -1.763544105012e-05
  61    -9.9750619573916e-06
  62       1.0010220639977
  63    0.00048706170098205
  64    -0.0061069482446255
  65    0.00079112612328071
  66    0.00089970407892283
  67    0.0023140057808356
  68    -0.00021902788457482
  69    -0.00012972659335638
  70    -0.00043876648972413
  71    -8.5961435802051e-05
  72    -6.4855799557728e-05
  73    -6.1313985273034e-05
  74    1.0311002419554e-05
  75    -3.2554219619782e-05
  76    -0.00022615164561218
  77    -8.0625205669252e-05
  78    1.758506570692e-06
  79    6.8443055853618e-05
  80    0.00014776123603591
  81    9.1800376600556e-05
  82    0.0001504158455214
  83    -0.00065018229406607
  84    -2.9060718542278e-07
  85    -4.9769318940192e-05
  86    3.3830512819495e-05
  87    -4.7881629670482e-05
  88    7.7334261336586e-05
  89    0.00042148331392649
  90    -1.8304814209055e-05
  91    1.3964033336779e-05
  92    8.981141880785e-06
  93    -9.6346725823614e-06
  94    8.8457753417415e-06
 Sym= A
 Ene=               5
 Spin= Alpha
 Occup=    1.00000
   1    3.7305088570445e-05
   2    3.9185067490127e-05
   3    -0.0011916003421414
   4    -0.00015854953564071
   5    -1.0187426580108e-06
   6    4.0182124702964e-06
   7    -0.00037583039707043
   8    0.00027250156293145
   9    0.00030988790099067
  10    1.1136553741426e-05
  11    3.0534144099524e-05
  12    4.813405329231e-05
  13    -6.3361811988577e-05
  14    -1.8011776979324e-06
  15    -0.00017291487368728
  16    0.00031254631513714
  17    0.0032762429479757
  18    0.00042243684852135
  19    -0.00081873063946858
  20    -0.00051418863788722
  21    -8.8305565340187e-05
  22    -0.0012237302377172
  23    -0.0010923895316478
  24    -2.8086857593179e-05
  25    -4.9469791920965e-05
  26    9.2875441977756e-05
  27    -6.2426707116919e-05
  28    -7.9401829505391e-05
  29    -0.00022847937231452
  30    -6.965982959683e-05
  31    -3.1822286962135e-06
  32    0.00013577466432765
  33    9.4402392703295e-05
  34       1.0010224485423
  35    0.00077515260488586
  36    -0.0057662747010101
  37    -0.00070967998524799
  38    0.0019369646475245
  39    0.0012012971188821
  40    0.00027371356186598
  41    -0.00053351395263338
  42    -0.00026044224919766
  43    1.3399988725031e-05
  44    4.4985641490822e-05
  45    -8.538047165006e-05
  46    6.9997187411973e-05
  47    6.1249208361076e-05
  48    9.2116371986782e-05
  49    0.00015245361857117
  50    -0.00064944335763264
  51    -5.8850736590075e-07
  52    3.7459151923754e-05
  53    -4.1860377268872e-05
  54    4.766754577763e-05
  55    0.00039733754730633
  56    0.00014973326073954
  57    1.9720313511742e-05
  58    -1.1467324412904e-05
  59    1.4472596966944e-06
  60    1.2801328064565e-05
  61    -1.2282940030816e-05
  62    -1.387474777306e-05
  63    -3.0668336761557e-05
  64    0.00016308933090324
  65    1.4211442235573e-05
  66    7.6823837054257e-06
  67    -3.1479517282574e-05
  68    -0.00011483630519013
  69    -1.7609343229689e-05
  70    7.6659509124147e-05
  71    4.4661078791041e-06
  72    -9.1177220912676e-06
  73    -2.9496883627522e-07
  74    -2.2693491828252e-05
  75    -7.5505872747292e-07
  76    2.0789756967411e-05
  77    8.218279851835e-05
  78    2.0050121656111e-05
  79    -7.1956988654248e-06
  80    -3.8671255968198e-05
  81    1.7846751104316e-05
  82    3.8806775133549e-05
  83    2.0488051676096e-05
  84    3.4660536537017e-05
  85    7.5716974391201e-06
  86    1.0494382770904e-06
  87    -9.0519211001624e-05
  88    6.8792412929674e-06
  89    -4.1874622383888e-05
  90    1.1413035708412e-05
  91    1.054837273222e-05
  92    -4.7595838810761e-06
  93    -1.3942981430346e-05
  94    2.3258672555893e-06
 Sym= A
 Ene=               6
 Spin= Alpha
 Occup=    1.00000
   1    -0.0024680089969648
   2    -0.00021619529106446
   3     0.028780520955521
   4    0.0014666779570377
   5    -0.0028308486095844
   6     -0.00117370165599
   7     0.040726062223909
   8    -0.0098878064982999
   9      0.01804755316768
  10    0.0034362648022821
  11    -0.028135764419425
  12     0.022356500849191
  13    -0.023027320737173
  14    -0.0059661667504849
  15    -0.0015304884377385
  16    -0.025999909101036
  17    -0.073502108202083
  18     0.048757959086177
  19    0.0045365234141302
  20     0.006250611578419
  21     0.047591204687072
  22    0.00098939592035969
  23    -0.019490888063008
  24    0.0017637366031929
  25    -0.0012630941432283
  26    0.0005479443201285
  27    -0.00040544750155052
  28    -0.0019988201835325
  29     0.015574275272784
  30     0.019869728059506
  31     0.002285878991725
  32    0.00039910970449181
  33    -0.0010795147562282
  34    -0.0011930319792607
  35    -0.0063904780974977
  36    -0.0030276149573401
  37    0.0097515892440899
  38    -0.0020058775280503
  39    0.0041501972796502
  40    -0.0031848575484055
  41    -0.0044807334335977
  42    0.0018656261678371
  43    -0.00018090276722271
  44    0.0012552099274231
  45    -0.00026697379698981
  46    0.0012210161759203
  47    0.00050848152912902
  48    0.00040524212253644
  49    0.00081192278813125
  50    -0.0030630758196666
  51    -0.0030872596046333
  52    -0.00035142531993306
  53    0.00061039233418809
  54    -0.0078975479026719
  55    0.0009418864192509
  56     0.002249435931844
  57    0.00031708483816342
  58    0.00035250229858658
  59    -0.00015568844241052
  60    -0.00010584852817554
  61    -0.00053333836837809
  62    -0.0011354922397998
  63    -0.0057231849648615
  64    0.0047006887089049
  65      0.54316222489863
  66     -0.39065349268689
  67      -0.0353165419325
  68      0.37635567200135
  69     -0.26895619801387
  70    -0.021855107427043
  71    -0.0011553933072436
  72     0.010119403259226
  73     -0.00745945848842
  74    0.0066588468788735
  75    0.0013374458061429
  76     0.050725723867985
  77     0.047250620114544
  78    -0.0020215987671212
  79    0.0001684111755786
  80    -0.003081999282394
  81    0.00065841739030806
  82    -0.00022293036250553
  83    -0.0093338925756298
  84    -0.0036448721376274
  85    0.00084393261352979
  86    0.0029297836652231
  87    -0.0062875437857766
  88    -0.0017203511406993
  89    0.0012235466671399
  90    0.00017314158829185
  91    -0.00038607454446475
  92    0.00040215888005676
  93    -0.0005907164878246
  94    -0.00017768778414334
 Sym= A
 Ene=               7
 Spin= Alpha
 Occup=    1.00000
   1     0.001531333902157
   2     0.026004477767085
   3     0.073504516742631
   4     0.048766607240738
   5    -0.0053691976420799
   6    -0.0055522641224615
   7     0.047593531585853
   8     0.019368907046131
   9    0.0024150125738458
  10    0.00029961757491766
  11    -0.0021876009487502
  12    -0.00096827315207893
  13    0.0015967670398093
  14    -0.00089630172504563
  15    0.0024670876837466
  16    0.00021361161006591
  17    -0.028773156883919
  18    0.0014681646440205
  19    0.00068296042252142
  20    0.0029903765583522
  21     0.040729235639116
  22    -0.019476757175268
  23    0.0065937284371527
  24    -0.024392992922009
  25    -0.010765822568238
  26     -0.01808449034851
  27     0.010933167106057
  28     -0.02667547210498
  29    -0.050718888134548
  30    -0.047243253198572
  31    -0.002021577081079
  32    0.0030643276049858
  33    0.0003696317483778
  34    0.0010934451542239
  35    0.0057625732644675
  36    -0.0046546051394825
  37      0.54327692995249
  38    -0.032955721529236
  39      0.39069903538514
  40      0.37643499684022
  41    -0.025111294086785
  42      0.26856067193276
  43    0.0072742938076088
  44    0.0030769467132894
  45    0.0062115086408937
  46    -0.0031272631773064
  47    0.0097347248919536
  48    -0.00065782432084984
  49    0.00021887139267766
  50    0.0093172054952508
  51    -0.0036427442092919
  52    -0.0027252498167923
  53    -0.0013432349306364
  54    -0.0062853366065448
  55    -0.0014907605735837
  56    0.0014785631791242
  57    -0.00053633594699648
  58    -0.00024227030269347
  59    -0.00032800144866305
  60    0.00038099898020309
  61    -0.00034950507744162
  62    0.0011927638273418
  63    0.0063901758985983
  64    0.0030310890840234
  65    0.0097509765006049
  66    -0.0044359125727123
  67    0.0012562398568536
  68    -0.0031853434909177
  69    -0.0026153517935358
  70     0.004090302344658
  71    0.0010224130952153
  72    0.00071876480481624
  73    9.5657266378284e-05
  74    -0.000735135274743
  75    0.0011480028068851
  76    -0.015578858889288
  77    -0.019876031969305
  78    0.0022861419467767
  79     0.001132773193335
  80    -0.00020564095125817
  81    -0.0004051548309763
  82    -0.00081124914688124
  83    0.0030635288763699
  84    -0.0030860386507667
  85    -0.00066263355544165
  86    0.00023859359523037
  87    -0.0078970931045871
  88    -0.0020518686785577
  89    -0.0013193902492255
  90    0.00010145648752599
  91    -0.00046406523930734
  92    7.0439178888218e-05
  93    0.00034749777689225
  94    0.00043997615490843
 Sym= A
 Ene=               8
 Spin= Alpha
 Occup=    1.00000
   1    -0.0028181154406415
   2    -0.0029795304665903
   3     0.016490572304687
   4    0.00046315156132107
   5    -0.00014562725435784
   6    -0.0001484139268796
   7      0.03613415383613
   8     -0.00227587678982
   9    -0.019846239345893
  10    -0.0055970896038129
  11     0.023949158870134
  12    -0.011394068118434
  13    -0.028388210361474
  14     -0.01522061576871
  15    -0.0029189555390691
  16    -0.034581842923715
  17    -0.070885932770964
  18     0.044557013529736
  19    0.00083501949903353
  20    -0.0039474276703194
  21     0.030974673085468
  22     -0.02037776772373
  23     0.015315262318844
  24    0.00038195376773638
  25    -0.00030211501907118
  26    -0.0018877287807329
  27    -0.0022793379274287
  28    -0.001472712146727
  29    -0.0098968074970579
  30    0.0075447041836459
  31    -0.00077133398654716
  32    0.00013374216400291
  33    0.0011545831028692