[Molden Format]
made by pyscf v[2.0.1]
[Atoms] (AU)
C   1   6     0.00000000000000     0.00000000000000     0.00000000000000
C   2   6     2.85272299873892     0.00000000000000     0.00000000000000
H   3   1     3.62066923017674     0.00000000000000     1.90331545357504
F   4   9     3.65943188126013    -2.04308229183900    -1.24074875274501
F   5   9     3.65943188126013     2.04308229183900    -1.24074875274501
F   6   9    -0.80670888252121    -0.46714714892290    -2.34423041954446
H   7   1    -0.76794623143782     1.78853148675225     0.65097222422570
F   8   9    -0.80670888252121    -1.86469774548472     1.49550828705447
[GTO]
1 0
 s    8 1.00
                  6665  0.00069158396281299
                  1000  0.0053257961529341
                   228   0.027060721042034
                 64.71    0.10165684614077
                 21.06     0.2745748236174
                 7.495    0.44829431892377
                 2.797    0.28490261071525
                0.5215   0.015194859206082
 s    8 1.00
                  6665  -0.00029326965268655
                  1000  -0.0023180354739745
                   228  -0.011499786038565
                 64.71  -0.046826727009787
                 21.06   -0.12846616875047
                 7.495   -0.30126627246289
                 2.797   -0.25563070233011
                0.5215      1.093793361012
 s    1 1.00
                0.1596                   1
 p    3 1.00
                 9.439   0.056979251590039
                 2.002    0.31320721150073
                0.5456    0.76037674173753
 p    1 1.00
                0.1517                   1
 d    1 1.00
                  0.55                   1

2 0
 s    8 1.00
                  6665  0.00069158396281299
                  1000  0.0053257961529341
                   228   0.027060721042034
                 64.71    0.10165684614077
                 21.06     0.2745748236174
                 7.495    0.44829431892377
                 2.797    0.28490261071525
                0.5215   0.015194859206082
 s    8 1.00
                  6665  -0.00029326965268655
                  1000  -0.0023180354739745
                   228  -0.011499786038565
                 64.71  -0.046826727009787
                 21.06   -0.12846616875047
                 7.495   -0.30126627246289
                 2.797   -0.25563070233011
                0.5215      1.093793361012
 s    1 1.00
                0.1596                   1
 p    3 1.00
                 9.439   0.056979251590039
                 2.002    0.31320721150073
                0.5456    0.76037674173753
 p    1 1.00
                0.1517                   1
 d    1 1.00
                  0.55                   1

3 0
 s    3 1.00
                 13.01   0.033498726389998
                 1.962    0.23480080117413
                0.4446     0.8136829578829
 s    1 1.00
                 0.122                   1
 p    1 1.00
                 0.727                   1

4 0
 s    8 1.00
                 14710  0.00072067370873197
                  2207  0.0055504869689163
                 502.8   0.028254207662589
                 142.6    0.10639582836653
                 46.47    0.28668420124307
                  16.7    0.44843796582416
                 6.356    0.26464118141135
                 1.316   0.015326060993048
 s    8 1.00
                 14710  -0.00032119389049893
                  2207  -0.0025461915683188
                 502.8  -0.012643359507821
                 142.6   -0.05195749170489
                 46.47   -0.14344713812646
                  16.7   -0.33243762329603
                 6.356   -0.21865906750347
                 1.316     1.0955904138622
 s    1 1.00
                0.3897                   1
 p    3 1.00
                 22.67   0.064834021493887
                 4.977    0.34053535983101
                 1.347    0.73464640679382
 p    1 1.00
                0.3471                   1
 d    1 1.00
                  1.64                   1

5 0
 s    8 1.00
                 14710  0.00072067370873197
                  2207  0.0055504869689163
                 502.8   0.028254207662589
                 142.6    0.10639582836653
                 46.47    0.28668420124307
                  16.7    0.44843796582416
                 6.356    0.26464118141135
                 1.316   0.015326060993048
 s    8 1.00
                 14710  -0.00032119389049893
                  2207  -0.0025461915683188
                 502.8  -0.012643359507821
                 142.6   -0.05195749170489
                 46.47   -0.14344713812646
                  16.7   -0.33243762329603
                 6.356   -0.21865906750347
                 1.316     1.0955904138622
 s    1 1.00
                0.3897                   1
 p    3 1.00
                 22.67   0.064834021493887
                 4.977    0.34053535983101
                 1.347    0.73464640679382
 p    1 1.00
                0.3471                   1
 d    1 1.00
                  1.64                   1

6 0
 s    8 1.00
                 14710  0.00072067370873197
                  2207  0.0055504869689163
                 502.8   0.028254207662589
                 142.6    0.10639582836653
                 46.47    0.28668420124307
                  16.7    0.44843796582416
                 6.356    0.26464118141135
                 1.316   0.015326060993048
 s    8 1.00
                 14710  -0.00032119389049893
                  2207  -0.0025461915683188
                 502.8  -0.012643359507821
                 142.6   -0.05195749170489
                 46.47   -0.14344713812646
                  16.7   -0.33243762329603
                 6.356   -0.21865906750347
                 1.316     1.0955904138622
 s    1 1.00
                0.3897                   1
 p    3 1.00
                 22.67   0.064834021493887
                 4.977    0.34053535983101
                 1.347    0.73464640679382
 p    1 1.00
                0.3471                   1
 d    1 1.00
                  1.64                   1

7 0
 s    3 1.00
                 13.01   0.033498726389998
                 1.962    0.23480080117413
                0.4446     0.8136829578829
 s    1 1.00
                 0.122                   1
 p    1 1.00
                 0.727                   1

8 0
 s    8 1.00
                 14710  0.00072067370873197
                  2207  0.0055504869689163
                 502.8   0.028254207662589
                 142.6    0.10639582836653
                 46.47    0.28668420124307
                  16.7    0.44843796582416
                 6.356    0.26464118141135
                 1.316   0.015326060993048
 s    8 1.00
                 14710  -0.00032119389049893
                  2207  -0.0025461915683188
                 502.8  -0.012643359507821
                 142.6   -0.05195749170489
                 46.47   -0.14344713812646
                  16.7   -0.33243762329603
                 6.356   -0.21865906750347
                 1.316     1.0955904138622
 s    1 1.00
                0.3897                   1
 p    3 1.00
                 22.67   0.064834021493887
                 4.977    0.34053535983101
                 1.347    0.73464640679382
 p    1 1.00
                0.3471                   1
 d    1 1.00
                  1.64                   1

[5d]
[7f]
[9g]

[MO]
 Sym= A
 Ene=               0
 Spin= Alpha
 Occup=    1.00000
   1       1.0019116139439
   2    0.0042220632870304
   3    -0.0074162002562418
   4    -0.00060109118331656
   5    -0.00099975856538598
   6    -0.00032184462232984
   7    -0.0015760424438261
   8    -0.00053024915516487
   9    -8.4088857173302e-05
  10    0.00027109995665922
  11    4.1467378442074e-05
  12    -0.00014675269819956
  13    -0.00013135303006685
  14    0.00010639127822846
  15    -0.00022903568492543
  16    3.1978935415938e-05
  17    0.0032787293440231
  18    -0.00048532960944151
  19    1.4485547084176e-05
  20    -2.1605496237964e-06
  21    -0.001559119041415
  22    5.5870980646507e-05
  23    -0.00028253240104021
  24    -7.9923829408857e-05
  25    -6.7059359080694e-05
  26    1.8941727711366e-05
  27    5.613316758923e-05
  28    -0.00010575639381431
  29    -2.7328573820145e-05
  30    0.00034712905934165
  31    -9.1666047510321e-05
  32    -2.0376945888436e-06
  33    -7.0458378344652e-05
  34    1.2247497642437e-06
  35    1.8450152585203e-05
  36    -0.00019882848387623
  37    -3.0696758435706e-05
  38    1.6478773076064e-05
  39    3.2841379019534e-06
  40    -8.1074077618345e-05
  41    -0.00011235034722766
  42    -2.504529082698e-05
  43    -1.6781028890722e-05
  44    -9.7487045412291e-06
  45    -1.4535289104831e-06
  46    3.4333732000563e-05
  47    -1.5115016097348e-05
  48    -4.0977061325447e-06
  49    1.3997284620936e-06
  50    -0.00017033674751442
  51    -1.2193681716683e-06
  52    -8.4711022028496e-06
  53    -1.0844836897692e-06
  54    -6.5510663228903e-05
  55    4.4099149834864e-05
  56    -3.1548226168508e-05
  57    -1.6739471634362e-05
  58    -5.5276034327807e-06
  59    -1.4075312641335e-05
  60    2.3181560488046e-05
  61    1.3147845034116e-05
  62    0.00013880353650361
  63    0.00064295701123222
  64    -2.8628010455107e-05
  65    8.3397823925522e-05
  66    3.4623512685996e-05
  67    0.00033758356617734
  68    -0.00015814558718161
  69    -0.00013119503683107
  70    -0.00082899446105791
  71    -0.00013733477021816
  72    -7.3821887193234e-05
  73    -3.6944139774891e-05
  74    -2.2467584324585e-05
  75    -3.4228326134393e-06
  76    0.00090641565339411
  77    0.0014892916979556
  78     0.000216581767184
  79    -3.6869840088503e-05
  80    -2.5690502058883e-05
  81     0.000150570939654
  82    0.00066720252093969
  83    -0.00011727088670415
  84    7.4676983211599e-05
  85    0.00024614218822928
  86    -0.00023185343429872
  87    -0.00013776630786367
  88     -0.00067502641608
  89    0.0005492521660829
  90    -1.2243728953088e-05
  91    5.6075756179169e-05
  92    0.00013785045991814
  93    5.530150992424e-05
  94    -5.2659085248759e-05
 Sym= A
 Ene=               1
 Spin= Alpha
 Occup=    1.00000
   1    -0.00022903480838135
   2    3.2008873241661e-05
   3    0.0032787423666867
   4    0.00048537600577613
   5    -6.9815399077562e-06
   6    1.2877062320352e-05
   7    0.0015591291259976
   8    -0.00028460239298292
   9    -4.4127544115927e-05
  10    -6.4463720235262e-06
  11    0.00012231648932586
  12    -1.1939815345324e-05
  13    9.8560391345529e-05
  14    2.6844794956461e-05
  15       1.0019116134791
  16    0.0042220649535832
  17    -0.0074161691276413
  18    0.00060102664263221
  19    3.952455687699e-05
  20    -0.0010494962655096
  21    0.0015760220018344
  22    0.00010234314371033
  23    -0.00052702353471576
  24    -6.922652829686e-05
  25    -0.0001141521932451
  26    -3.725538667451e-06
  27    -0.00032783251787791
  28    -2.5769273465144e-06
  29    0.0009064314479251
  30    0.0014892935848415
  31    -0.00021658384827519
  32    -1.1530401386218e-05
  33    -4.3432879811401e-05
  34    0.00013881981270065
  35    0.00064292283873328
  36    -2.8661291950247e-05
  37    -8.3389012760775e-05
  38    0.00030531807294411
  39    0.00014796938634503
  40    0.00015815410078693
  41    -0.00073416932493369
  42    -0.00040683292709101
  43    4.1186137604053e-05
  44    2.8465271705637e-05
  45    -0.00011197407082741
  46    8.0603283613041e-05
  47    6.8200060286775e-05
  48    0.00015057158628092
  49    0.00066718929350043
  50    -0.00011728907157716
  51    -7.4690208543284e-05
  52    -0.00030201969997185
  53    0.0001519961649506
  54    0.00013776065574755
  55    0.00074702477575356
  56    -0.00044646537165468
  57    3.8421353308443e-05
  58    3.0303832496841e-05
  59    0.00011655819893349
  60    8.4554340868141e-05
  61    -7.0704350222441e-05
  62    1.2203312159541e-06
  63    1.8448064370082e-05
  64    -0.00019883183993404
  65    3.0681840359808e-05
  66    -2.5503823344667e-06
  67    1.6607484551704e-05
  68    8.1060653217447e-05
  69    1.4890848787801e-05
  70    -0.00011414154892734
  71    -2.1618966729249e-05
  72    1.753796532397e-05
  73    5.7963961428229e-07
  74    3.1540731553217e-05
  75    3.9912335315336e-06
  76    -2.732932056919e-05
  77    0.00034712232487947
  78    9.166725789977e-05
  79    -6.5512828310129e-05
  80    -2.6013249852839e-05
  81    -4.0976373642869e-06
  82    1.3986054477111e-06
  83    -0.00017034108310252
  84    1.2101442105348e-06
  85    1.876495021657e-06
  86    -8.3288887522666e-06
  87    6.5500793451565e-05
  88    -4.4729901901017e-05
  89    3.0650831006345e-05
  90    -2.0130352598853e-05
  91    -1.046459043452e-05
  92    -1.2650273788557e-05
  93    2.1224109067172e-05
  94    9.6914636521889e-06
 Sym= A
 Ene=               2
 Spin= Alpha
 Occup=    1.00000
   1    -0.00018161400679168
   2    0.00029476548376722
   3    0.0035136767923187
   4    -0.00040213523667172
   5    -0.00075106371247971
   6    0.00059538854379934
   7    0.00019954621565534
   8    -0.0015046967503807
   9    0.0006910510416952
  10    8.2818538382161e-06
  11    -5.3857792697996e-05
  12    -0.00011495266888092
  13    -3.2307108519525e-05
  14    9.1579323613817e-05
  15    4.6599899106796e-05
  16    5.3297045644701e-05
  17    -0.0012902323588163
  18    0.00014589859023691
  19    -2.6060048441529e-05
  20    6.7369970437194e-06
  21    0.00064632597659979
  22    0.00026637206983593
  23    -2.3244718920591e-05
  24    4.3292592553024e-05
  25    8.6610824289419e-06
  26    -3.8336350825119e-05
  27    -7.1002488360423e-05
  28    -1.9248279571748e-05
  29    4.3305698866059e-05
  30    -0.00010057817753987
  31    5.284416519753e-05
  32    2.3012213089235e-06
  33    1.2818623228485e-06
  34    2.176573787277e-05
  35    4.3555380249487e-05
  36     2.14405602489e-05
  37    -3.7244388361207e-05
  38    -4.9439748129728e-06
  39    -5.0703365292445e-06
  40    0.00013038329144754
  41    3.7653835232054e-05
  42    -7.3755326690015e-08
  43    1.0404362103123e-05
  44    1.1591668016702e-05
  45    -4.1974511885494e-06
  46    -2.0466876958668e-05
  47    3.8502730217303e-07
  48    -3.2414782100915e-05
  49    -5.878753076296e-05
  50    0.0001563555796088
  51    2.266615077561e-05
  52    -5.2775935054218e-06
  53    6.785648574297e-06
  54    -0.00017779394326835
  55    -3.1928425936568e-05
  56    9.7047787649585e-06
  57    8.0941284195944e-07
  58    9.2633177304955e-07
  59    4.1774830943815e-07
  60    2.2137506162256e-06
  61    -4.066285038096e-06
  62    9.708124802272e-05
  63    0.00016210479929976
  64    -0.00070102953156231
  65    -5.3337600333023e-06
  66    -2.9197449627942e-05
  67    -4.6823841402374e-05
  68    -3.1301300998806e-05
  69    0.00028639713466663
  70    -0.00033965771523278
  71    -1.913141636601e-05
  72    -6.8991589200349e-06
  73    1.5239645283275e-05
  74    -5.8835549322642e-06
  75     1.58891866722e-05
  76    -0.00020153402767138
  77    -2.0784029769658e-05
  78    1.4585596492221e-05
  79    0.00012910451006177
  80    -9.3464913567913e-05
  81       1.0010313836109
  82    0.00083075673099299
  83    -0.0057653864919225
  84    0.00073825614801998
  85    0.0017650676322187
  86    -0.0013851638462855
  87    -0.00029082334594908
  88    -0.00042057400146547
  89    0.00044816589809324
  90    -1.317143777482e-05
  91    4.3130071426895e-05
  92     9.66573366562e-05
  93    5.4927065630442e-05
  94    -6.0127553999574e-05
 Sym= A
 Ene=               3
 Spin= Alpha
 Occup=    1.00000
   1    4.6603306080144e-05
   2    5.3330623517815e-05
   3    -0.0012902198197093
   4    -0.00014587170265238
   5    1.5292107888779e-05
   6    -2.218869963854e-05
   7    -0.00064637342213043
   8    -0.00011290350428852
   9    0.00024238337450035
  10    1.8902629415737e-05
  11    1.5116777550876e-05
  12    -2.8083986158755e-05
  13    -8.5077301045225e-05
  14    -1.4715251074972e-05
  15    -0.00018158551826511
  16    0.00029499203623177
  17    0.0035137938570065
  18    0.0004022256349523
  19    0.00081653646489906
  20    -0.00050227964089541
  21    -0.00019955595265311
  22    0.0011639628988543
  23    -0.0011776265019577
  24    -4.1932498822449e-05
  25    -6.7654810993845e-05
  26    -9.3866813262775e-05
  27    -6.1282363591901e-05
  28    8.1943876933993e-05
  29    -0.00020147005439778
  30    -2.0786971448558e-05
  31    -1.4579319899531e-05
  32    -0.00013197390697751
  33    8.9346702664603e-05
  34    9.708341711139e-05
  35    0.00016207121103993
  36    -0.00070111303219504
  37    5.3827386711512e-06
  38    -3.4048888159749e-05
  39    -4.3531632919847e-05
  40    3.133561520538e-05
  41    -0.00041717094713883
  42    0.00015289718498267
  43    1.918876227911e-05
  44    -1.2569968888853e-05
  45    -8.6768500741973e-07
  46    1.6238166255861e-05
  47    1.1918098749872e-05
  48       1.0010313855017
  49    0.00082956641067987
  50    -0.0057667944470931
  51    -0.00073821584565182
  52    -0.0019065520704808
  53    0.0011845379521649
  54    0.00029086242223335
  55    0.00056414435204887
  56    -0.00024216787273036
  57    1.6060684555285e-05
  58    4.1753417027482e-05
  59    8.4355358562871e-05
  60    7.1791076402082e-05
  61    -6.108426058146e-05
  62    2.1764330222973e-05
  63    4.3549220952777e-05
  64    2.1449035703508e-05
  65    3.7243168013175e-05
  66    -3.0722173502537e-06
  67    -6.3911519322044e-06
  68    -0.00013037763043607
  69    -1.2948774600002e-05
  70    3.5351127435871e-05
  71    9.9377685385778e-06
  72    -4.3262072007977e-06
  73    -4.0008277592488e-06
  74    -2.0735678433173e-05
  75    -1.07602296037e-05
  76    4.333554767637e-05
  77    -0.00010063596242458
  78    -5.2846061973852e-05
  79    4.1735249665987e-07
  80    2.6009628955786e-06
  81    -3.2412955747377e-05
  82    -5.8793910000429e-05
  83    0.00015634217340049
  84    -2.2698683233752e-05
  85    8.1634717070252e-06
  86    -2.6331553699758e-06
  87    0.00017777176267395
  88    2.0021564282818e-05
  89    -2.6681198119546e-05
  90    -1.7230135573761e-06
  91    3.5050463211733e-06
  92    1.4831389033179e-06
  93    7.5174481881485e-07
  94    -2.261987214706e-06
 Sym= A
 Ene=               4
 Spin= Alpha
 Occup=    1.00000
   1    -0.00017106438841686
   2    0.00031099975927315
   3    0.0031864756912089
   4    -0.00042670612688957
   5    -0.00019986245149977
   6    -0.00093688022245729
   7    5.9652439873734e-05
   8    -0.00062910494929946
   9    -0.0015292028688775
  10    0.00011293359763201
  11    9.6229089170451e-05
  12    3.5446389663927e-05
  13    1.5249272227798e-05
  14    2.3717256289445e-05
  15    2.8592920137278e-05
  16    2.5857999593995e-05
  17    -0.0010934705343752
  18    0.00016846362085873
  19    3.9936791440862e-08
  20    -5.5375524636841e-07
  21    0.00029604724305812
  22    0.00019067990947467
  23    0.0003090869088082
  24    6.9804160638795e-05
  25    -7.3633443710839e-06
  26    2.1462971250514e-05
  27    -3.5155895867807e-05
  28    -2.3156213499592e-05
  29    1.3599498985279e-05
  30    0.00011587158290175
  31    -1.7572534114222e-05
  32    -2.4586406677414e-05
  33    -1.5207699706724e-05
  34    2.8695086722381e-06
  35    2.8252855878603e-06
  36    9.3671223394516e-05
  37    -2.8858521535849e-05
  38    -2.7136762128776e-05
  39    1.4884207800186e-06
  40    0.00016167480247945
  41    6.3403501250374e-05
  42    2.170496219279e-06
  43    1.7633415051531e-05
  44    1.1899354608895e-06
  45    -1.4749819737825e-06
  46    -1.7579426078345e-05
  47    1.1786137412472e-05
  48    2.0614296487262e-05
  49    4.2328473748096e-05
  50    2.1323354933484e-06
  51    -3.5398625297664e-05
  52    7.3994840733823e-06
  53    7.2491859698505e-06
  54    0.00012388896377391
  55    -4.2894310316371e-05
  56    -1.3323145089471e-06
  57    8.8075206747791e-06
  58    -3.1345967659459e-06
  59    -3.3319696141395e-06
  60    -1.7795589215931e-05
  61    -1.2591149914907e-05
  62       1.0010265121355
  63    0.00081745732990032
  64    -0.0057431927257927
  65    0.00071117407142951
  66    0.00044926677954824
  67    0.0022070065658052
  68    -0.00028825846489964
  69    -6.731159051002e-05
  70    -0.00060787826224971
  71    -0.00010597334235181
  72    -7.390263649963e-05
  73    -3.588510566356e-05
  74    -6.3610199430313e-07
  75    -2.1069906745599e-05
  76    -0.00021470327261305
  77    -6.0568654922763e-05
  78    2.2558282500888e-06
  79    3.9523906009202e-05
  80    0.00015984048979098
  81    9.3044223972005e-05
  82    0.00015413817921523
  83    -0.00065256047203954
  84    8.8360931363126e-07
  85    -5.2933438037276e-05
  86    2.0807861270887e-05
  87    -4.9471017092684e-05
  88    8.9037230322775e-06
  89    0.00042775372518529
  90    -1.5532728296157e-05
  91    1.5753474349478e-05
  92    1.6334027284832e-05
  93    -8.3323491265227e-06
  94    6.4081740690493e-06
 Sym= A
 Ene=               5
 Spin= Alpha
 Occup=    1.00000
   1    2.8627999113501e-05
   2    2.6026775901274e-05
   3    -0.0010934194826693
   4    -0.00016814635898542
   5    -7.7364638389012e-07
   6    -3.3651337691886e-07
   7    -0.00029598453937968
   8    0.00022537953434294
   9    0.00028477490182639
  10    1.6157980197262e-05
  11    2.4212118458822e-05
  12    4.4003686769187e-05
  13    -6.6081992084481e-05
  14    -1.0648427015724e-06
  15    -0.0001708738348147
  16    0.00031235771145771
  17     0.003186774809416
  18    0.00042715764017394
  19    -0.00081344841635017
  20    -0.0005090237181587
  21    -5.9542661556285e-05
  22    -0.0012222214423015
  23    -0.0011139229277673
  24    -2.8814950168928e-05
  25    -5.5225451562725e-05
  26    9.4788186289009e-05
  27    -6.6489446386893e-05
  28    -8.2444325642808e-05
  29    -0.0002150442197087
  30    -6.1263376022998e-05
  31    -2.237710974819e-06
  32    0.00013666169743053
  33    9.1776801514315e-05
  34       1.0010265248714
  35    0.0008092100020564
  36    -0.0057529688361767
  37    -0.000710771648766
  38    0.0019229585435253
  39     0.001183894658424
  40    0.00028858207376059
  41    -0.00054642941895842
  42    -0.00026648973172617
  43    1.4963667358756e-05
  44    4.5024392206173e-05
  45    -8.6531637115454e-05
  46    6.9099027273333e-05
  47    6.2223486852351e-05
  48    9.3023142176618e-05
  49    0.00015423750447135
  50    -0.0006522419994863
  51    -7.9505493960624e-07
  52    3.7153598295308e-05
  53    -4.2834668815006e-05
  54    4.9502846454661e-05
  55    0.00039856419365898
  56    0.00015454652839774
  57    2.0478464287875e-05
  58    -1.1398870302938e-05
  59    1.1781341399402e-06
  60    1.2448339014295e-05
  61    -1.260721219756e-05
  62    2.8781255422006e-06
  63    2.886844938574e-06
  64    9.3684520101609e-05
  65    2.9003421686791e-05
  66    1.0639980348747e-05
  67    -2.4990191185831e-05
  68    -0.00016162278840315
  69    -1.9651884666972e-05
  70    6.0354591229365e-05
  71    6.9084481044324e-06
  72    -1.1472739660041e-05
  73    3.0349957951952e-06
  74    -2.377745425472e-05
  75    2.9194264775587e-06
  76    1.3411766986434e-05
  77    0.00011575047664405
  78    1.7565647951858e-05
  79    -5.8527353995208e-06
  80    -2.8291946639506e-05
  81    2.0599804020896e-05
  82    4.2303407450791e-05
  83    2.253556685525e-06
  84    3.5369942803861e-05
  85    4.2841932481648e-06
  86    9.421858075152e-06
  87    -0.00012390907422461
  88    1.3443508624704e-05
  89    -4.0781781873151e-05
  90    8.8978257660952e-06
  91    1.2898233089239e-05
  92    -3.3712534298695e-06
  93    -1.7740093575996e-05
  94    -1.359704616802e-06
 Sym= A
 Ene=               6
 Spin= Alpha
 Occup=    1.00000
   1    -0.0007812341359796
   2    -0.015395946035735
   3    -0.024818637136993
   4     0.015104953659294
   5     0.029771942785891
   6    -0.021665274255152
   7     0.011439974309191
   8     0.039784361502239
   9     -0.02716088234937
  10     0.021273946236321
  11    -0.015724183691383
  12    -0.031610801765512
  13    -0.0033896802822026
  14    -0.009865254202504
  15    -0.0028536525639899
  16    -0.014941188177226
  17    -0.0069680240152549
  18     0.026152006014524
  19    -0.0025818263358243
  20    0.0047379006356996
  21    0.0079056256186643
  22    -0.011525020730506
  23    -0.0099955271585367
  24    0.0015310898696941
  25    6.8376043414251e-05
  26    0.00051514853420686
  27    0.00024555458146216
  28    -0.00030857581303387
  29     0.012680029387137
  30     0.017110581978872
  31    0.00094689983857978
  32    0.00021311791171305
  33    -0.0011566400771064
  34    0.0010140980297425
  35    0.0013960325570514
  36    -0.0095741364782415
  37    -0.0030446907388675
  38    -0.0032760302878018
  39    0.00090298481880746
  40    -0.0030230688503863
  41    -0.0043327011969164
  42    -0.00014952223889657
  43    0.0003019862878485
  44    0.00035861015136658
  45    -8.5640145155533e-05
  46    -4.4280237897882e-05
  47    0.00013080549287617
  48    -0.00052345710883285
  49    -0.0035195638486715
  50    -0.0024115641984833
  51    0.0061380872687084
  52    0.0045538467796696
  53     0.002427772600597
  54    0.0018358988382968
  55    0.0039783630207472
  56    0.00038758773493989
  57    0.00010276066648724
  58    0.00069298563066015
  59    0.00013570006308002
  60    0.00032404161571964
  61    -0.0001749790592276
  62    -0.00040091160231616
  63    -0.0026441441750289
  64    -0.00023868831895195
  65      0.32949829542065
  66      0.53154080826229
  67      -0.2220877718461
  68      0.22882754072198
  69      0.36623606086673
  70     -0.15119367660957
  71    -0.0083665192408253
  72    0.0052156927691024
  73    0.0099844515163329
  74    -3.6370401222912e-05
  75    0.0059103546283142
  76    -0.020608403587647
  77     -0.01675520826597
  78    0.00065437297580148
  79    -0.00074809936799278
  80    0.00091722695256241
  81    -0.0016366509891227
  82     0.014114527609134
  83      0.05083179849057
  84    0.0062767156227006
  85     0.025884722778908
  86    -0.038133926286722
  87    0.0060818942510043
  88     0.023711888703988
  89    -0.036155379187151
  90    -0.00025475157657857
  91    -0.00062829374699261
  92    -0.00052541476100728
  93    0.00011328288152633
  94    -0.00041371352426358
 Sym= A
 Ene=               7
 Spin= Alpha
 Occup=    1.00000
   1    0.0019770704933756
   2      0.02652464239824
   3     0.069470540344633
   4     0.048814058193958
   5    -0.0047567308361271
   6    -0.0062096039598245
   7     0.043850716585811
   8     0.022040100470878
   9    0.0039603579410236
  10    0.00017649492579577
  11    -0.0019669580422538
  12    -0.0013716811132759
  13    0.0018035388312544
  14    -0.00060717869955138
  15    0.0023254151921577
  16    0.00068910825102689
  17    -0.023556799998416
  18    0.00095125632054674
  19    -4.2274607470858e-06
  20    0.0026503987567044
  21     0.037984067890769
  22     -0.01947540257228
  23    0.0067946560848991
  24    -0.024492906153088
  25    -0.010688804554097
  26      -0.0181318104337
  27     0.010840783634824
  28    -0.026513408682865
  29    -0.051182820074567
  30    -0.047671760785616
  31    -0.001979301196734
  32    0.0030193427734066
  33    0.00038599446326699
  34    0.0011584859360744
  35    0.0042772735844139
  36    -0.0067373101018035
  37      0.54142226310191
  38    -0.032535569806429
  39       0.3927798788237
  40       0.3756101176043
  41    -0.024829050515708
  42      0.27011798608942
  43     0.007300783103146
  44    0.0029860390878327
  45    0.0062709134200771
  46    -0.0031874291900215
  47     0.009685300229506
  48    -0.00061573041650645
  49    0.00028852154355011
  50    0.0088888565563886
  51    -0.0035356748290909
  52    -0.0027718587664252
  53    -0.0013635817898757
  54    -0.0058844120949396
  55    -0.0014590104801306
  56    0.0013315235347114
  57    -0.00054730626257137
  58    -0.00024372157298267
  59    -0.00032204052574206
  60    0.00038658428078042
  61    -0.00035062546271555
  62    0.0010257306030495
  63    0.0052933925828631
  64     0.002061957816791
  65    0.0074381900043246
  66    -0.0054542149000223
  67    0.00097689897832927
  68    -0.0044145287235881
  69    -0.0036486345351806
  70    0.0032225132874197
  71    0.00082753634433312
  72    0.00075255623256333
  73    -8.115663470988e-05
  74    -0.00043087387075044
  75    0.00099133925599685
  76    -0.016419194176162
  77    -0.022567282665195
  78    0.0021784788599819
  79    0.0011892121443219
  80    0.00019433872799522
  81    -0.00050284519965318
  82    -0.00044256129657121
  83    0.0053097947795677
  84    -0.0021129618747566
  85    -0.00046958329106287
  86    -0.0012379133037628
  87    -0.0070965296551831
  88    -0.00086769709356716
  89    -0.0026209084753566
  90    0.00011775175061726
  91    -0.00030064482159828
  92    -0.00013058873609778
  93    0.00028532513296326
  94    0.00058562366767053
 Sym= A
 Ene=               8
 Spin= Alpha
 Occup=    1.00000
   1    -0.0027687084265667
   2    -0.0025681134312079
   3     0.018614275950261
   4    0.00051361675177344
   5    -0.00065952058162603
   6    -0.00027075721867034
   7       0.0367933754844
   8    0.0015649922805801
   9    -0.021137863152896
  10    -0.0084365948056541
  11     0.020866860906024
  12    -0.0041386037578714
  13    -0.029825814817623
  14      -0.0191760415511
  15    -0.0030267148848187
  16    -0.033859328116184
  17    -0.068003432445597
  18     0.044895013619638
  19    0.0013412924755224
  20    -0.0019315028798382
  21     0.034490227182648
  22    -0.020645868350699
  23     0.015712871226639
  24    9.5312384862864e-05
  25    -0.00075680109494692
  26    -0.0019883094661917
  27    -0.002444022859071
  28    -0.0015111962896025
  29    -0.0079595633306168
  30    0.0045521042338926
  31    -0.00011626046081693
  32    0.00057511922886309