[Molden Format]
made by pyscf v[2.0.1]
[Atoms] (AU)
C   1   6     0.00000000000000     0.00000000000000     0.00000000000000
C   2   6     2.85272299873892     0.00000000000000     0.00000000000000
H   3   1     3.62066923017674     0.00000000000000     1.90331545357504
F   4   9     3.65943188126013    -2.04308229183900    -1.24074875274501
F   5   9     3.65943188126013     2.04308229183900    -1.24074875274501
F   6   9    -0.80670888252121    -1.86469774548472    -1.49550828705448
H   7   1    -0.76794623143782     1.78853148675225    -0.65097222422570
F   8   9    -0.80670888252121    -0.46714714892290     2.34423041954446
[GTO]
1 0
 s    8 1.00
                  6665  0.00069158396281299
                  1000  0.0053257961529341
                   228   0.027060721042034
                 64.71    0.10165684614077
                 21.06     0.2745748236174
                 7.495    0.44829431892377
                 2.797    0.28490261071525
                0.5215   0.015194859206082
 s    8 1.00
                  6665  -0.00029326965268655
                  1000  -0.0023180354739745
                   228  -0.011499786038565
                 64.71  -0.046826727009787
                 21.06   -0.12846616875047
                 7.495   -0.30126627246289
                 2.797   -0.25563070233011
                0.5215      1.093793361012
 s    1 1.00
                0.1596                   1
 p    3 1.00
                 9.439   0.056979251590039
                 2.002    0.31320721150073
                0.5456    0.76037674173753
 p    1 1.00
                0.1517                   1
 d    1 1.00
                  0.55                   1

2 0
 s    8 1.00
                  6665  0.00069158396281299
                  1000  0.0053257961529341
                   228   0.027060721042034
                 64.71    0.10165684614077
                 21.06     0.2745748236174
                 7.495    0.44829431892377
                 2.797    0.28490261071525
                0.5215   0.015194859206082
 s    8 1.00
                  6665  -0.00029326965268655
                  1000  -0.0023180354739745
                   228  -0.011499786038565
                 64.71  -0.046826727009787
                 21.06   -0.12846616875047
                 7.495   -0.30126627246289
                 2.797   -0.25563070233011
                0.5215      1.093793361012
 s    1 1.00
                0.1596                   1
 p    3 1.00
                 9.439   0.056979251590039
                 2.002    0.31320721150073
                0.5456    0.76037674173753
 p    1 1.00
                0.1517                   1
 d    1 1.00
                  0.55                   1

3 0
 s    3 1.00
                 13.01   0.033498726389998
                 1.962    0.23480080117413
                0.4446     0.8136829578829
 s    1 1.00
                 0.122                   1
 p    1 1.00
                 0.727                   1

4 0
 s    8 1.00
                 14710  0.00072067370873197
                  2207  0.0055504869689163
                 502.8   0.028254207662589
                 142.6    0.10639582836653
                 46.47    0.28668420124307
                  16.7    0.44843796582416
                 6.356    0.26464118141135
                 1.316   0.015326060993048
 s    8 1.00
                 14710  -0.00032119389049893
                  2207  -0.0025461915683188
                 502.8  -0.012643359507821
                 142.6   -0.05195749170489
                 46.47   -0.14344713812646
                  16.7   -0.33243762329603
                 6.356   -0.21865906750347
                 1.316     1.0955904138622
 s    1 1.00
                0.3897                   1
 p    3 1.00
                 22.67   0.064834021493887
                 4.977    0.34053535983101
                 1.347    0.73464640679382
 p    1 1.00
                0.3471                   1
 d    1 1.00
                  1.64                   1

5 0
 s    8 1.00
                 14710  0.00072067370873197
                  2207  0.0055504869689163
                 502.8   0.028254207662589
                 142.6    0.10639582836653
                 46.47    0.28668420124307
                  16.7    0.44843796582416
                 6.356    0.26464118141135
                 1.316   0.015326060993048
 s    8 1.00
                 14710  -0.00032119389049893
                  2207  -0.0025461915683188
                 502.8  -0.012643359507821
                 142.6   -0.05195749170489
                 46.47   -0.14344713812646
                  16.7   -0.33243762329603
                 6.356   -0.21865906750347
                 1.316     1.0955904138622
 s    1 1.00
                0.3897                   1
 p    3 1.00
                 22.67   0.064834021493887
                 4.977    0.34053535983101
                 1.347    0.73464640679382
 p    1 1.00
                0.3471                   1
 d    1 1.00
                  1.64                   1

6 0
 s    8 1.00
                 14710  0.00072067370873197
                  2207  0.0055504869689163
                 502.8   0.028254207662589
                 142.6    0.10639582836653
                 46.47    0.28668420124307
                  16.7    0.44843796582416
                 6.356    0.26464118141135
                 1.316   0.015326060993048
 s    8 1.00
                 14710  -0.00032119389049893
                  2207  -0.0025461915683188
                 502.8  -0.012643359507821
                 142.6   -0.05195749170489
                 46.47   -0.14344713812646
                  16.7   -0.33243762329603
                 6.356   -0.21865906750347
                 1.316     1.0955904138622
 s    1 1.00
                0.3897                   1
 p    3 1.00
                 22.67   0.064834021493887
                 4.977    0.34053535983101
                 1.347    0.73464640679382
 p    1 1.00
                0.3471                   1
 d    1 1.00
                  1.64                   1

7 0
 s    3 1.00
                 13.01   0.033498726389998
                 1.962    0.23480080117413
                0.4446     0.8136829578829
 s    1 1.00
                 0.122                   1
 p    1 1.00
                 0.727                   1

8 0
 s    8 1.00
                 14710  0.00072067370873197
                  2207  0.0055504869689163
                 502.8   0.028254207662589
                 142.6    0.10639582836653
                 46.47    0.28668420124307
                  16.7    0.44843796582416
                 6.356    0.26464118141135
                 1.316   0.015326060993048
 s    8 1.00
                 14710  -0.00032119389049893
                  2207  -0.0025461915683188
                 502.8  -0.012643359507821
                 142.6   -0.05195749170489
                 46.47   -0.14344713812646
                  16.7   -0.33243762329603
                 6.356   -0.21865906750347
                 1.316     1.0955904138622
 s    1 1.00
                0.3897                   1
 p    3 1.00
                 22.67   0.064834021493887
                 4.977    0.34053535983101
                 1.347    0.73464640679382
 p    1 1.00
                0.3471                   1
 d    1 1.00
                  1.64                   1

[5d]
[7f]
[9g]

[MO]
 Sym= A
 Ene=               0
 Spin= Alpha
 Occup=    1.00000
   1    -0.00023218583907336
   2    3.2073108403898e-05
   3    0.0032861846784253
   4    0.00047380540419557
   5    7.5180706610132e-06
   6    1.8083333368859e-05
   7    0.0016116110366018
   8    -0.0003292381079869
   9    0.00025016068659662
  10    -1.3854643692048e-05
  11    0.00011026433628352
  12    1.8756865787749e-05
  13    8.4050192855096e-05
  14    1.7047759453261e-05
  15        1.001914623537
  16    0.0042348585061935
  17    -0.0074848153020613
  18    0.00056919748558628
  19    5.1698012924871e-05
  20    -0.0011064443275957
  21    0.0015864461207889
  22    0.0001167584509052
  23    -0.00065759661080524
  24    -8.0456797909408e-05
  25    -0.00011447468695295
  26    -6.7986649991766e-06
  27    -0.00033231305700707
  28    -6.0624535886856e-06
  29    0.00095090269641601
  30    0.0015406189319121
  31    -0.00021902235665363
  32    -1.1078986455432e-05
  33    -6.9735068997151e-05
  34    0.00014265665331093
  35    0.0006501197637209
  36    -5.5040584455148e-05
  37    -8.2642256471725e-05
  38    0.00030577412991655
  39    0.00014406888261758
  40    0.00015916514500836
  41    -0.00074764769937044
  42    -0.00039511493653177
  43    4.2476261881452e-05
  44    2.9735270816605e-05
  45    -0.00011124430805888
  46    8.1846945650332e-05
  47    6.9142874952867e-05
  48    0.00015926864731124
  49    0.00068355295337161
  50    -0.00017087994064573
  51    -7.3703690684174e-05
  52    -0.00030058628519172
  53    0.00014642295604043
  54    0.00014650936696058
  55    0.00076129492987831
  56    -0.0004344194038282
  57    4.0365892297942e-05
  58    3.168988715567e-05
  59     0.000117487078851
  60    8.5949192527534e-05
  61    -7.2839012581354e-05
  62    -5.448418465646e-06
  63    3.7641932546697e-06
  64    -0.00015924904181599
  65    2.4767899099408e-05
  66    3.0657230487534e-06
  67    1.4706158817417e-05
  68    7.3476649003241e-05
  69    -3.3887753008771e-05
  70    -9.3030033303934e-05
  71    -1.857901340284e-05
  72    1.0837315766411e-05
  73    2.880648746354e-06
  74    3.1375530101958e-05
  75    1.3891938752525e-05
  76    -2.5056804903659e-05
  77    0.00041097298591412
  78    9.7515961131787e-05
  79    -4.5060008072484e-05
  80    1.8754302114652e-05
  81     1.33909421656e-05
  82    2.9722411244454e-05
  83    -0.00027414647973658
  84    -2.5173913929023e-06
  85    -9.1180780892629e-06
  86    4.4276804110657e-06
  87    -2.3530954006196e-06
  88    1.4322988854311e-05
  89    3.1731497660477e-05
  90    7.1910987548319e-07
  91    -1.0490305009112e-05
  92    -9.0410342449702e-06
  93    2.597900420095e-05
  94    2.0907101977974e-06
 Sym= A
 Ene=               1
 Spin= Alpha
 Occup=    1.00000
   1       1.0019146238401
   2    0.0042348782896655
   3    -0.0074848169326687
   4    -0.0005692344362547
   5    -0.0010220682118616
   6    0.00042701849074794
   7    -0.0015864409221722
   8    -0.00057801297067203
   9    0.00033462958370743
  10    0.00028402312600105
  11    -3.3457141643969e-05
  12    0.00014637873392475
  13    -0.00012189373227468
  14    0.00010964424660059
  15    -0.00023218912763924
  16    3.2045835948176e-05
  17    0.0032861548853423
  18    -0.000473770663494
  19    1.9554112217259e-05
  20    8.9218866895608e-07
  21    -0.0016115907868695
  22    0.00012246103985043
  23    -0.00039493867025503
  24    -7.0218917553491e-05
  25    2.1692985063647e-05
  26    -4.9317128547182e-06
  27    5.1507191581709e-05
  28    -0.00010944492538981
  29    -2.5048761754413e-05
  30    0.00041098057560539
  31    -9.7515504094457e-05
  32    2.2117984609795e-06
  33    -4.8756820456738e-05
  34    -5.4263394773148e-06
  35    3.7514948029702e-06
  36    -0.00015926420664458
  37    -2.4771027392943e-05
  38    1.4866080316199e-05
  39    -2.1399982058571e-06
  40    -7.348145915158e-05
  41    -9.9011011527303e-05
  42    -2.0722323499109e-08
  43    -1.9567277401906e-05
  44    -9.3474153245615e-06
  45    2.4652498877676e-06
  46     3.08051591762e-05
  47    -1.493444317569e-05
  48    1.340108118033e-05
  49    2.9732464210519e-05
  50    -0.0002741271140019
  51    2.5237002495759e-06
  52    1.0533620635454e-06
  53    -1.0096639129996e-05
  54    2.3535380494416e-06
  55    3.472260537147e-05
  56    2.5976741882087e-06
  57    -1.5066948408143e-05
  58    -5.5519482526657e-06
  59    -1.5675117671017e-05
  60    1.6864906080513e-05
  61    9.1417351584992e-06
  62    0.00014249636914386
  63    0.00065011634455931
  64    -5.5047425850296e-05
  65    8.2755172845879e-05
  66    0.00023990915664158
  67    0.00023813446770851
  68    -0.00015908691990606
  69    -0.0006270345711167
  70    -0.0005673715096297
  71    -1.4446878709812e-05
  72    -5.4800702067077e-05
  73    -0.00013516704874229
  74    4.8982479178972e-05
  75    -5.1588777165393e-05
  76    0.00095092081226267
  77    0.0015406381993933
  78    0.00021902054878553
  79    -6.9319876610761e-05
  80    1.3440382999459e-05
  81    0.00015905462401927
  82    0.00068354359660923
  83    -0.00017089237264666
  84    7.3786083690961e-05
  85    3.4686005468928e-05
  86    -0.00033258259425333
  87    -0.00014645232265943
  88    -0.00014791186225666
  89    0.00086393460389347
  90    -0.0001442267070671
  91    7.9282649406911e-05
  92    3.9908045815428e-05
  93    -2.0625666253873e-05
  94    -4.8669864148517e-06
 Sym= A
 Ene=               2
 Spin= Alpha
 Occup=    1.00000
   1    8.7416119375196e-05
   2    0.00012733447183441
   3    -0.0016218233589969
   4    -0.00013696575492683
   5    3.2837683627327e-05
   6    -2.2139609739756e-05
   7    -0.0006549548860107
   8    -0.00026469912094346
   9    0.00027993741139219
  10    -1.7829190703437e-05
  11    2.8274205218327e-05
  12    -6.5581688939974e-05
  13    -7.5467567089042e-05
  14    -3.7558109250847e-05
  15    -0.00019218645232203
  16    0.00024324487871112
  17    0.0036199359643913
  18    0.00037536701319888
  19    0.00076493871708352
  20    -0.00047630228613122
  21    -0.00020218299154432
  22    0.0011493636413016
  23    -0.0011050524659886
  24    -3.2556498622593e-05
  25    -5.5424178639906e-05
  26    -8.5350002529535e-05
  27    -6.3504963648048e-05
  28    6.2484134712548e-05
  29    -0.0002313315001169
  30    -7.8721961815235e-05
  31    -7.94095622782e-06
  32    -0.00012902495660285
  33    0.00010172739218617
  34    0.00010051734709451
  35    0.00016870992319116
  36    -0.00071888642268102
  37    2.5189501300754e-06
  38    -3.3992368194145e-05
  39    -4.169127420887e-05
  40    3.9828028508603e-05
  41    -0.00041642389989495
  42    0.00013725280878717
  43    1.8294379856066e-05
  44    -1.2282636448327e-05
  45    -3.2979852306547e-06
  46    1.7534937632385e-05
  47    1.1931084916616e-05
  48       1.0010233415779
  49    0.0010630568528825
  50    -0.0054314164247981
  51    -0.00065725541413982
  52    -0.0017628249727376
  53    0.0010740238827677
  54    0.00031878456876255
  55    0.00063417717977652
  56    -0.00030577970876105
  57    1.3035239865567e-05
  58    4.2179879520897e-05
  59    8.5961839259327e-05
  60    7.5296987113689e-05
  61    -6.0803795207579e-05
  62    -6.692657515407e-06
  63    -7.6983453171189e-06
  64    0.00013994762488083
  65    1.7998242959135e-05
  66    8.6985232854985e-06
  67    4.8083188014419e-06
  68    1.2755510902959e-05
  69    5.6893814034374e-05
  70    2.2100237213566e-05
  71    -4.1012278579252e-06
  72    4.514198308897e-06
  73    1.2187846084157e-06
  74    -1.6795977231393e-05
  75    -1.6548830773766e-06
  76    7.2127027985613e-05
  77    0.00010838909772688
  78    -3.3844895741201e-05
  79    2.5331453630458e-06
  80    -1.3753109644197e-05
  81    -1.8324180205763e-05
  82    -2.9338607371412e-05
  83    0.00012945853274049
  84    -7.6435199981218e-06
  85    7.1853397516881e-06
  86    -1.1954520465072e-05
  87    0.00013328596608335
  88     1.92388376826e-05
  89    -4.7078885674483e-05
  90     2.70065304373e-06
  91    -1.9451598044026e-06
  92    -1.3150912186429e-05
  93    -2.8809307017546e-06
  94    1.1047521520971e-07
 Sym= A
 Ene=               3
 Spin= Alpha
 Occup=    1.00000
   1    -0.00018235426485904
   2    0.00031806294287826
   3    0.0036415788913289
   4    -0.00040884854934569
   5    -0.0002059779127697
   6    0.00098032812521083
   7    0.00020817178867047
   8    -0.00063668538026671
   9    0.0014571410355697
  10    0.00011300089721762
  11    -7.9075353789234e-05
  12    -3.0673936173477e-05
  13    1.6842160482558e-05
  14    3.0463098783654e-05
  15    8.7026012504374e-05
  16    0.00012482826288989
  17    -0.0016248669981053
  18    0.00014224949988741
  19    -1.1184156120693e-05
  20    4.6587031954475e-05
  21    0.0006711442326274
  22    0.00016793031609336
  23    -0.00032783302554809
  24    9.9654351160088e-05
  25    4.0849642997686e-05
  26    -1.6086795805479e-05
  27    -6.991208480731e-06
  28    -1.230627146637e-05
  29    7.2847530475235e-05
  30    8.8078929895887e-05
  31    3.4370073011352e-05
  32    -1.1836966603638e-05
  33    7.3408614042726e-06
  34    -6.7544712080522e-06
  35    -7.3881558212195e-06
  36    0.00014206586586562
  37    -1.9409181500559e-05
  38    8.3810717439782e-06
  39    5.9448060286728e-06
  40    -1.6371452004149e-05
  41    4.1599111931835e-05
  42    4.3556765373367e-05
  43    1.3598435064812e-05
  44    3.1216999837274e-06
  45    8.5913925844599e-06
  46    -6.6972975668321e-06
  47    -3.4895792114064e-06
  48    -1.8335983177299e-05
  49    -2.8402483654328e-05
  50    0.0001344492212475
  51    4.7152308152948e-06
  52    -1.019076332119e-05
  53    1.0846304348725e-05
  54    -0.00013672534447638
  55    -3.8953225708866e-05
  56    3.2813810089047e-05
  57    8.7829913738825e-06
  58    -6.9728529219745e-07
  59    -1.0557251274162e-05
  60    4.5618009294232e-07
  61    1.5863901873785e-06
  62    9.9977466396065e-05
  63    0.00016700732351318
  64    -0.00071691500495597
  65    -3.4968060549117e-06
  66    -5.2757192739826e-05
  67    -2.0238766907988e-05
  68    -3.9561426167127e-05
  69    -1.4803446150936e-05
  70    -0.00044083643763948
  71    -1.633945848707e-05
  72    -1.5106195037083e-05
  73    -1.7277780426142e-05
  74    -3.1450597004972e-06
  75    7.0167436519065e-06
  76    -0.00022910616031734
  77    -9.4155670311805e-05
  78    5.924583542888e-06
  79    5.0725677762226e-05
  80    -0.00015230013424948
  81       1.0010233203468
  82    0.00063977975336244
  83    -0.0059295936776563
  84    0.0007996207778805
  85    0.00046186566600969
  86    -0.0023089350149912
  87    -0.00022374410666973
  88    -3.4142679271724e-05
  89     0.000509456324442
  90    -0.00010320343498168
  91    6.610962903851e-05
  92    3.1725107530305e-05
  93    5.2478753972556e-06
  94    -1.7694986635286e-05
 Sym= A
 Ene=               4
 Spin= Alpha
 Occup=    1.00000
   1    -0.00018732590164504
   2    0.00033925888593219
   3    0.0037774576102675
   4    -0.00043072582230796
   5    -0.00083404921764924
   6    -0.00064712128441675
   7    0.00025417571837268
   8    -0.0014401544031429
   9    -0.00076514026429189
  10    5.3018882156537e-06
  11    4.0894125326215e-05
  12    0.00010310984847806
  13    -3.6753523427613e-05
  14    6.8148866925012e-05
  15    7.4832705343667e-05
  16    9.5347051400674e-05
  17    -0.0016805200893031
  18    0.00012296592299758
  19    2.7204390460577e-06
  20    -2.6833211246748e-06
  21    0.00073135705536866
  22    0.00043594393805742
  23    0.00030455404735103
  24    1.6380810784908e-05
  25    -6.3724654246404e-07
  26    5.8871383079502e-05
  27    -3.9414553308108e-05
  28    -3.3603969244009e-05
  29    8.5975358641987e-05
  30    -3.9884935502341e-05
  31    -3.1056766639827e-05
  32    -6.0733999051174e-05
  33    -1.5998298137299e-05
  34    -6.1782981943928e-05
  35    -0.00012369849303215
  36    0.00037765462514343
  37    2.0916569156577e-05
  38    -3.3129664779992e-05
  39    -1.2938813866262e-05
  40    -4.3997653341754e-05
  41    9.0925133455832e-05
  42    2.7506476052534e-05
  43    1.2160837605158e-05
  44    2.0916332957742e-06
  45    -6.4334514579027e-06
  46    -9.226071493606e-06
  47    5.7591720314911e-08
  48    -7.0250115728048e-06
  49    -5.7462818891448e-06
  50    0.00012259394657434
  51    -1.1765345518298e-05
  52    -1.1567724370378e-05
  53    1.2148593826379e-05
  54    -7.2944292283358e-05
  55    -6.7365265595677e-05
  56    -1.4432808281197e-05
  57    -6.7591456463231e-06
  58    -4.7441032888357e-06
  59    -1.5762048413311e-07
  60    -1.5025582892853e-05
  61    1.0706586812015e-06
  62       1.0010216293912
  63    0.00041778007365806
  64    -0.006197272555242
  65    0.00076581780276868
  66    0.0019818758636375
  67    0.0015893089207824
  68    -0.00022034832953658
  69    -0.0002923753898127
  70    -0.00031577475839708
  71    -1.3272788550348e-05
  72    -4.1155855009421e-05
  73    -8.696692084432e-05
  74    5.6715109717969e-05
  75    -5.9230863740697e-05
  76    -0.00025409999281442
  77    -9.8828036366849e-05
  78    2.3181918807401e-06
  79    0.00013840938621296
  80    8.7034652311597e-05
  81    9.9582533686166e-05
  82    0.00016441131867707
  83    -0.00071709508061346
  84    -1.8240297958363e-06
  85    -2.4583284701974e-05
  86    5.5086245120091e-05
  87    -5.1318733925712e-05
  88    0.00026809261978859
  89    0.00035364371286548
  90    -1.9223645426688e-05
  91    7.8496863423867e-06
  92    -1.1986518998085e-05
  93    -5.4163036252466e-06
  94    1.4464599491595e-05
 Sym= A
 Ene=               5
 Spin= Alpha
 Occup=    1.00000
   1    7.3898746512337e-05
   2    9.4279006667138e-05
   3    -0.0016700452066896
   4    -0.00012160775653043
   5    3.046298132577e-06
   6    7.2163369425604e-06
   7    -0.000727664167023
   8    0.00043659568796473
   9    0.00031156509185203
  10    -7.2421382116663e-06
  11    3.4366068861058e-05
  12    4.9357164076367e-05
  13    -5.4288267214982e-05
  14    1.5954831277346e-05
  15    -0.0001967696872556
  16    0.00027162716894895
  17    0.0037633793927524
  18    0.00040052273704017
  19    -0.00082023569654663
  20    -0.00051540655387478
  21    -0.00025499027062737
  22    -0.0012072270966396
  23    -0.0010967087047947
  24    -3.1864992707702e-05
  25    -4.8548082760891e-05
  26    8.2086024813033e-05
  27    -5.6845572156336e-05
  28    -5.9138126987098e-05
  29    -0.00025638655882016
  30    -8.4147291705252e-05
  31    -4.0350569630748e-06
  32    0.00013175586609423
  33    0.00010196319917565
  34       1.0010220831974
  35    0.00079050298999816
  36    -0.0057570425559183
  37    -0.00067837903791972
  38    0.0019325799361752
  39    0.0012031161217409
  40    0.00027890276978332
  41    -0.00055633255521069
  42    -0.00024253171736927
  43    1.073830200672e-05
  44    4.3510267394905e-05
  45    -8.269633167972e-05
  46    7.369671060033e-05
  47    6.2430920248477e-05
  48    0.00010006541725403
  49    0.00016714445151938
  50    -0.00071658181786528
  51    7.4288710384695e-07
  52    3.7798185872032e-05
  53    -4.0304624322465e-05
  54    5.125571881538e-05
  55    0.00041884924386044
  56    0.00013140047077095
  57    1.788105263259e-05
  58    -1.1317945942386e-05
  59    3.3866681797759e-06
  60    1.6623268524187e-05
  61    -1.2406461278744e-05
  62    -6.2110126062187e-05
  63    -0.00012496420241487
  64    0.00037839494195897
  65    -2.4922811378572e-05
  66    -2.0118543951022e-05
  67    -2.519642580713e-05
  68    4.3039441437509e-05
  69    5.7500460139649e-05
  70    7.5372083076747e-05
  71    6.5909629480778e-06
  72    5.2792536145098e-07
  73    -8.8737079558846e-06
  74    -1.2189453683182e-05
  75    -2.266670366445e-06
  76    8.4925575269768e-05
  77    -4.3450123698627e-05
  78    3.1621035171337e-05
  79    -3.6343612336478e-05
  80    -5.160322817968e-05
  81    -6.7345525158378e-06
  82    -5.8146271758495e-06
  83    0.00011780921381337
  84    1.0274442435758e-05
  85    6.8235624835624e-06
  86    -1.4548522286635e-05
  87    7.0952829955869e-05
  88    -3.7298529460529e-05
  89    -5.7504852983306e-05
  90    1.3750701711187e-05
  91    -2.7204356748324e-06
  92    8.4059613863897e-06
  93    -3.0848928922107e-06
  94    4.1956259568622e-06
 Sym= A
 Ene=               6
 Spin= Alpha
 Occup=    1.00000
   1    -0.00095356065136586
   2    -0.015697267775106
   3    -0.027425655767755
   4     0.015008688998033
   5     0.027807513915132
   6     0.021011566082554
   7    0.0088429894984195
   8     0.038341925400569
   9     0.030260937373485
  10     0.020193251299115
  11      0.01393580948448
  12      0.03232858310581
  13    -0.0024597756718534
  14    -0.009866715702093
  15    -0.0010161166243963
  16    -0.017504406832422
  17    -0.027319476260109
  18     0.016764878703449
  19    1.7428712196807e-05
  20    -0.0068638693810333
  21    -0.0067319988132373
  22    0.00033605830258144
  23    -0.010034732278083
  24    0.00015667761589426
  25    -8.5676426258869e-05
  26    4.9303159934483e-05
  27    -4.9829133748979e-05
  28    -0.00050062191063617
  29    -0.0089561750981818
  30     0.018109009101096
  31    -0.0024188490899683
  32    0.00063057980654806
  33     0.001502641452326
  34    -0.00076382544081937
  35    0.0014377361367113
  36     0.010943491472805
  37    -0.005095367558381
  38    0.0050923650183032
  39     0.004767021632455
  40    -0.0069474572886797
  41    0.0057577579284787
  42    0.0049365658629877
  43    -0.00013486589036336
  44    1.8220359293354e-07
  45    0.00015333911587346
  46    -0.00020808236030001
  47    5.0515314319066e-06
  48    0.00069132030741404
  49    0.0034509753608172
  50    0.0027314401136252
  51    -0.0041258507389067
  52    -0.003461446965784
  53    0.0011990679283317
  54    0.00023074128701834
  55    -0.0040643345275872
  56    0.0012073338512894
  57    6.6673302138343e-05
  58    0.00017208507144577
  59    3.8985081994258e-06
  60    -0.0004573971927258
  61    -0.00031624613286204
  62    -0.0018744125578717
  63     0.013560693487696
  64     0.051517595253813
  65    0.0061793284414413
  66     0.025971693228472
  67     0.038116051807032
  68     0.006448538888053
  69     0.024035008036548
  70     0.035951346044591
  71    -0.00024865640309848
  72    0.00060813639354106
  73    0.00061269506574996
  74    0.00014498607964449
  75    -0.0003847498134678
  76    -0.025582700799043
  77    -0.019285759445181
  78    0.00063372789845123
  79    -0.0005121056265372
  80    -0.0015458092157775
  81    -0.0005252698776193
  82    0.00044834787252414
  83    0.0028440266827925
  84      0.29593863717169
  85      0.55355817086722
  86      0.21376206736776
  87      0.20625496593099
  88      0.38318149963878
  89      0.14628846661541
  90    -0.0079143381498151
  91    -0.0043186445242744
  92    -0.010168728167384
  93    -0.00022040227728542
  94    0.0061873171777775
 Sym= A
 Ene=               7
 Spin= Alpha
 Occup=    1.00000
   1    0.00077651818646443
   2     0.026050286552232
   3     0.083288929271173
   4     0.048679503308116
   5    -0.0051889209420255
   6    -0.0023303700995006
   7     0.054117534932061
   8     0.014167310918001
   9    0.0049803579679314
  10    -0.0002704426462252
  11    -0.0018389588196466
  12    -0.00057193101093945
  13    0.00091043775872309
  14    -0.0019571599567062
  15    0.0029490840282415
  16    -0.00011807802908901
  17      -0.0391938242116
  18    0.0026619297824304
  19    0.0019630026491948
  20    0.0029402821609915
  21     0.047678222848143
  22    -0.019524989353673
  23    0.0080028475157286
  24    -0.023918188283272
  25    -0.010859041946858
  26    -0.017738262793942
  27     0.011526189719568
  28    -0.027213560805439
  29    -0.050453813631848
  30     -0.04855779840033
  31    -0.0020451550446163
  32    0.0031496836626243
  33    0.00055722509874472
  34    0.00088481287765868
  35    0.0078974003262098
  36    -0.00074722729485716
  37       0.5510486090678
  38    -0.026684816866948
  39      0.38046051505994
  40      0.38049544083916
  41    -0.021007819667579
  42       0.2617693270861
  43    0.0069718780837671
  44    0.0031878638186978
  45    0.0061334670540936
  46    -0.0031516726655355
  47     0.009953252839909
  48    -0.00088594226999628
  49    -0.00029013483019499
  50      0.01098258861467
  51    -0.0038453178191685
  52    -0.0022635358166427
  53    -0.0015214571746652
  54    -0.0076504436085805
  55    -0.0017878752353537
  56    0.0013981013050847
  57    -0.00053211910807142
  58    -0.0002698750811395
  59    -0.00034297080439763
  60    0.00033860811589001
  61    -0.00034966296850014
  62    0.00097993868084694
  63    0.0070017458872589
  64    0.0070278687647624
  65     0.012645455435443
  66    0.00029565970871246
  67    -0.0018941667658998
  68    0.00038690870611014
  69    0.0020247251873531
  70    0.0023014764574278
  71    0.00084022344216784
  72    0.00091278689018713
  73    0.00038107391166321
  74    -0.0014444173704583
  75    0.0011070633006684
  76    -0.011132324623082
  77    -0.013568618508626
  78    0.0024406570264776
  79    0.00038218182976653
  80    -0.0012836753503131
  81    0.00030150914420138
  82    -0.00077702386207377
  83    -0.0051572500898082
  84    -0.0047589906891492
  85    -0.00045417074366548
  86    0.0040393089210986
  87    -0.0092882943717549
  88    -0.0033186370855452
  89    0.0041228011620328
  90    -0.00028280464918677
  91    -0.00064567105408584
  92    0.00028510707241882
  93    0.00020689608085177
  94    7.6956414827754e-05
 Sym= A
 Ene=               8
 Spin= Alpha
 Occup=    1.00000
   1    0.0016324526614997
   2     0.034638955946776
   3     0.085704654439618
   4     0.043124108092553
   5    0.0088904638459009
   6     -0.00375469452514
   7     0.022085331275203
   8    -0.0054138310721413
   9      0.01198276547876
  10    -0.00084618774737496
  11    -0.0014056370134071
  12    0.0008889562401119
  13    0.0013483634490181
  14    0.00057186868198097
  15    0.0029927392230403
  16    0.0038065188815222
  17    -0.013578064385136
  18    0.00088195594961167
  19    0.00059570889882624
  20    -0.00093684307190959
  21     0.034365754615328
  22     0.015442198400181
  23     0.007227223187318
  24    -0.022700213331172
  25    -0.010694180645788
  26     0.016753366032472
  27     0.012439837275617
  28     0.026471122432184
  29    -0.050862392917135
  30    -0.048808035236302
  31    -0.0016370149564924
  32    -0.0028491003408193
  33    0.00097343170314781