[Molden Format]
made by pyscf v[2.0.1]
[Atoms] (AU)
C   1   6     0.00000000000000     0.00000000000000     0.00000000000000
C   2   6     2.85272299873892     0.00000000000000     0.00000000000000
H   3   1     3.62066923017674     0.00000000000000     1.90331545357504
F   4   9     3.65943188126013    -2.04308229183900    -1.24074875274501
F   5   9     3.65943188126013     2.04308229183900    -1.24074875274501
F   6   9    -0.80670888252121    -0.05297879367154    -2.38973554312721
H   7   1    -0.76794623143782     1.64831953421149     0.95165772678752
F   8   9    -0.80670888252121    -2.09606108551054     1.14898679038220
[GTO]
1 0
 s    8 1.00
                  6665  0.00069158396281299
                  1000  0.0053257961529341
                   228   0.027060721042034
                 64.71    0.10165684614077
                 21.06     0.2745748236174
                 7.495    0.44829431892377
                 2.797    0.28490261071525
                0.5215   0.015194859206082
 s    8 1.00
                  6665  -0.00029326965268655
                  1000  -0.0023180354739745
                   228  -0.011499786038565
                 64.71  -0.046826727009787
                 21.06   -0.12846616875047
                 7.495   -0.30126627246289
                 2.797   -0.25563070233011
                0.5215      1.093793361012
 s    1 1.00
                0.1596                   1
 p    3 1.00
                 9.439   0.056979251590039
                 2.002    0.31320721150073
                0.5456    0.76037674173753
 p    1 1.00
                0.1517                   1
 d    1 1.00
                  0.55                   1

2 0
 s    8 1.00
                  6665  0.00069158396281299
                  1000  0.0053257961529341
                   228   0.027060721042034
                 64.71    0.10165684614077
                 21.06     0.2745748236174
                 7.495    0.44829431892377
                 2.797    0.28490261071525
                0.5215   0.015194859206082
 s    8 1.00
                  6665  -0.00029326965268655
                  1000  -0.0023180354739745
                   228  -0.011499786038565
                 64.71  -0.046826727009787
                 21.06   -0.12846616875047
                 7.495   -0.30126627246289
                 2.797   -0.25563070233011
                0.5215      1.093793361012
 s    1 1.00
                0.1596                   1
 p    3 1.00
                 9.439   0.056979251590039
                 2.002    0.31320721150073
                0.5456    0.76037674173753
 p    1 1.00
                0.1517                   1
 d    1 1.00
                  0.55                   1

3 0
 s    3 1.00
                 13.01   0.033498726389998
                 1.962    0.23480080117413
                0.4446     0.8136829578829
 s    1 1.00
                 0.122                   1
 p    1 1.00
                 0.727                   1

4 0
 s    8 1.00
                 14710  0.00072067370873197
                  2207  0.0055504869689163
                 502.8   0.028254207662589
                 142.6    0.10639582836653
                 46.47    0.28668420124307
                  16.7    0.44843796582416
                 6.356    0.26464118141135
                 1.316   0.015326060993048
 s    8 1.00
                 14710  -0.00032119389049893
                  2207  -0.0025461915683188
                 502.8  -0.012643359507821
                 142.6   -0.05195749170489
                 46.47   -0.14344713812646
                  16.7   -0.33243762329603
                 6.356   -0.21865906750347
                 1.316     1.0955904138622
 s    1 1.00
                0.3897                   1
 p    3 1.00
                 22.67   0.064834021493887
                 4.977    0.34053535983101
                 1.347    0.73464640679382
 p    1 1.00
                0.3471                   1
 d    1 1.00
                  1.64                   1

5 0
 s    8 1.00
                 14710  0.00072067370873197
                  2207  0.0055504869689163
                 502.8   0.028254207662589
                 142.6    0.10639582836653
                 46.47    0.28668420124307
                  16.7    0.44843796582416
                 6.356    0.26464118141135
                 1.316   0.015326060993048
 s    8 1.00
                 14710  -0.00032119389049893
                  2207  -0.0025461915683188
                 502.8  -0.012643359507821
                 142.6   -0.05195749170489
                 46.47   -0.14344713812646
                  16.7   -0.33243762329603
                 6.356   -0.21865906750347
                 1.316     1.0955904138622
 s    1 1.00
                0.3897                   1
 p    3 1.00
                 22.67   0.064834021493887
                 4.977    0.34053535983101
                 1.347    0.73464640679382
 p    1 1.00
                0.3471                   1
 d    1 1.00
                  1.64                   1

6 0
 s    8 1.00
                 14710  0.00072067370873197
                  2207  0.0055504869689163
                 502.8   0.028254207662589
                 142.6    0.10639582836653
                 46.47    0.28668420124307
                  16.7    0.44843796582416
                 6.356    0.26464118141135
                 1.316   0.015326060993048
 s    8 1.00
                 14710  -0.00032119389049893
                  2207  -0.0025461915683188
                 502.8  -0.012643359507821
                 142.6   -0.05195749170489
                 46.47   -0.14344713812646
                  16.7   -0.33243762329603
                 6.356   -0.21865906750347
                 1.316     1.0955904138622
 s    1 1.00
                0.3897                   1
 p    3 1.00
                 22.67   0.064834021493887
                 4.977    0.34053535983101
                 1.347    0.73464640679382
 p    1 1.00
                0.3471                   1
 d    1 1.00
                  1.64                   1

7 0
 s    3 1.00
                 13.01   0.033498726389998
                 1.962    0.23480080117413
                0.4446     0.8136829578829
 s    1 1.00
                 0.122                   1
 p    1 1.00
                 0.727                   1

8 0
 s    8 1.00
                 14710  0.00072067370873197
                  2207  0.0055504869689163
                 502.8   0.028254207662589
                 142.6    0.10639582836653
                 46.47    0.28668420124307
                  16.7    0.44843796582416
                 6.356    0.26464118141135
                 1.316   0.015326060993048
 s    8 1.00
                 14710  -0.00032119389049893
                  2207  -0.0025461915683188
                 502.8  -0.012643359507821
                 142.6   -0.05195749170489
                 46.47   -0.14344713812646
                  16.7   -0.33243762329603
                 6.356   -0.21865906750347
                 1.316     1.0955904138622
 s    1 1.00
                0.3897                   1
 p    3 1.00
                 22.67   0.064834021493887
                 4.977    0.34053535983101
                 1.347    0.73464640679382
 p    1 1.00
                0.3471                   1
 d    1 1.00
                  1.64                   1

[5d]
[7f]
[9g]

[MO]
 Sym= A
 Ene=               0
 Spin= Alpha
 Occup=    1.00000
   1    -0.0002297560298194
   2    2.9143941006214e-05
   3     0.003286941656962
   4    0.00048743256769279
   5    -7.8356189501959e-06
   6    9.6279124730221e-06
   7    0.0015324059142734
   8    -0.00022277769877422
   9    -9.0249695666664e-05
  10    -1.1285570373239e-05
  11    0.0001266182525902
  12    -2.1020610528108e-05
  13    9.3767604928129e-05
  14    2.5486810741327e-05
  15       1.0019107556561
  16    0.0042199186200107
  17    -0.007390631921863
  18    0.00060159572055524
  19    3.897095729175e-05
  20    -0.001033656343142
  21    0.0015674447561169
  22    8.7125350836085e-05
  23    -0.00050328647768646
  24    -6.5566987907687e-05
  25    -0.00011189956584105
  26    -4.8628577746061e-06
  27    -0.00032448644886013
  28    1.2972590458281e-06
  29    0.00089396827927377
  30    0.0014821145361425
  31    -0.00021479306803669
  32    -1.1732329717254e-05
  33    -3.6861428546154e-05
  34    0.00013709710182316
  35    0.00063959821947417
  36    -2.0455426003926e-05
  37    -8.28160055786e-05
  38    0.00030529111594891
  39    0.00014912500169305
  40    0.00015372403373773
  41    -0.00072847195572194
  42    -0.00040937952354147
  43    4.0415125261073e-05
  44    2.7898599736288e-05
  45    -0.00011135249316453
  46    7.9963800370495e-05
  47    6.7753037560503e-05
  48    0.00014897230382981
  49    0.00066392665413687
  50    -0.00010554401153932
  51    -7.5890360472904e-05
  52    -0.00030251893061872
  53    0.00015250929901704
  54    0.00013979849606754
  55    0.00074603386507905
  56    -0.00044536823375499
  57    3.8397982612766e-05
  58    2.9789545921495e-05
  59    0.00011628201383934
  60    8.4245410808064e-05
  61    -7.0463126198942e-05
  62    1.7860337441211e-06
  63    1.9771437729179e-05
  64    -0.00020259248297976
  65    3.0538142274446e-05
  66    -4.5030659939989e-06
  67    1.6714184339724e-05
  68    8.4347615474609e-05
  69    2.7850865207028e-05
  70    -0.00011223952938621
  71    -2.1695780663397e-05
  72    1.8119236200578e-05
  73    2.147323933186e-06
  74    3.157586103157e-05
  75    1.2351723152808e-06
  76    -3.6221783230006e-05
  77    0.00030695196916443
  78    8.6408484375835e-05
  79    -6.0970995258307e-05
  80    -3.8067186592949e-05
  81    -9.0104642381775e-06
  82    -6.5901998712959e-06
  83    -0.00014179913600886
  84    2.3661451567401e-06
  85    6.1978280954704e-06
  86    -9.4310348981345e-06
  87    8.3728904826311e-05
  88    -5.3531373843734e-05
  89    2.903868937816e-05
  90    -2.4128143854888e-05
  91    -8.7168976716677e-06
  92    -8.344710491521e-06
  93    2.099204991515e-05
  94    1.2577076951947e-05
 Sym= A
 Ene=               1
 Spin= Alpha
 Occup=    1.00000
   1       1.0019107557938
   2    0.0042199248585033
   3    -0.0073906509075981
   4    -0.00060165000248714
   5    -0.00091467658289996
   6    -0.00048310037439263
   7    -0.0015674618417968
   8    -0.00047942351271792
   9    -0.00017619547471893
  10    0.00021531291647381
  11    5.4828891709014e-05
  12    -0.00019211373578693
  13    -0.00016232625261434
  14    9.7559866002718e-05
  15    -0.00022975518156128
  16    2.9121913155151e-05
  17    0.0032869305342053
  18    -0.00048739723080668
  19     1.22530983092e-05
  20    -1.9790890694635e-06
  21    -0.0015323980948535
  22    3.3228875593998e-05
  23    -0.00023805731123455
  24    -7.5257395476746e-05
  25    -8.5380789151997e-05
  26    2.162846369217e-05
  27    5.6829491487815e-05
  28    -9.6910116476514e-05
  29    -3.6223907473062e-05
  30    0.00030695577244643
  31    -8.6407378164537e-05
  32    -2.4816944491541e-06
  33    -7.1835436976554e-05
  34    1.7854979619545e-06
  35    1.9772401947864e-05
  36    -0.00020259038075708
  37    -3.055414357242e-05
  38    1.6730924541862e-05
  39    4.4583657325417e-06
  40    -8.43612297125e-05
  41    -0.00011112468214077
  42    -3.199933672433e-05
  43    -1.6186708311645e-05
  44    -1.0129250902634e-05
  45    -1.5252956443509e-06
  46    3.4756352706453e-05
  47    -1.5074119625095e-05
  48    -9.0104099007973e-06
  49    -6.5897343919923e-06
  50    -0.00014179651919862
  51    -2.3743707950135e-06
  52    -1.1270782420258e-05
  53    6.5195102474914e-07
  54    -8.3737040983827e-05
  55    5.1911049910122e-05
  56    -3.1839808967635e-05
  57    -1.6877278467827e-05
  58    -6.533425321432e-06
  59    -1.3178642160638e-05
  60    2.5178113059386e-05
  61    1.3837412124483e-05
  62    0.00013709761225119
  63    0.00063962329102379
  64    -2.0431127619494e-05
  65    8.2814082998402e-05
  66    -2.3510335507104e-05
  67    0.00033899906826674
  68    -0.00015372312058423
  69    9.6959613360756e-06
  70    -0.00083553585665758
  71    -0.00014050197788292
  72    -7.2624798589577e-05
  73    9.2600667734202e-06
  74    -2.4490175136164e-05
  75    9.7154717740753e-06
  76    0.0008939688409157
  77    0.0014821168721922
  78    0.00021479188450701
  79    -2.6057559299711e-05
  80    -2.8591844823853e-05
  81    0.00014897138728949
  82    0.00066394126712744
  83    -0.0001055268180596
  84    7.5878575334393e-05
  85    0.00028335468314487
  86    -0.0001857690936218
  87    -0.0001398039152768
  88    -0.00075870542063206
  89    0.00042337773276426
  90    2.7693220175055e-05
  91    4.6127892489282e-05
  92    0.00012341722768783
  93    7.8063751566727e-05
  94    -6.1030375975188e-05
 Sym= A
 Ene=               2
 Spin= Alpha
 Occup=    1.00000
   1    -0.00018162875363283
   2    0.00029767269225044
   3    0.0035198036970909
   4    -0.0004047777348513
   5    -0.00084604733813263
   6    0.00045627847494613
   7    0.00021253561079363
   8    -0.0016213173216062
   9    0.00042346035208429
  10    -2.8644698163392e-05
  11    -4.3125263187218e-05
  12    -0.00010545975258571
  13    -5.1808827856326e-05
  14    9.7770370598594e-05
  15    4.0335382781898e-05
  16    4.0958783459256e-05
  17    -0.0012660390351527
  18    0.00014367008138192
  19    -2.4846590767676e-05
  20    -2.1352640621457e-06
  21    0.00066166352377249
  22    0.00029995212374492
  23    5.7248013675905e-05
  24    2.3253811194443e-05
  25    -4.0723177060661e-06
  26    -2.8977967760402e-05
  27    -8.3915884988268e-05
  28    -2.0134058373275e-05
  29    5.2092834858652e-05
  30    -0.00014284180845086
  31     4.68921144683e-05
  32    -2.6346904821362e-07
  33    -2.666918569446e-06
  34    1.7705032359638e-05
  35    3.3927476363971e-05
  36    3.3918266141167e-05
  37    -3.1761964285604e-05
  38    -7.3970513018655e-06
  39    -1.3874515354159e-05
  40    0.00013376309348843
  41    3.3183201832691e-05
  42    1.0950344429208e-05
  43    1.0498131555651e-05
  44    1.1188803697275e-05
  45    -7.2042327076644e-06
  46    -2.1650196333712e-05
  47    1.8319892049076e-06
  48    -3.0995446962887e-05
  49    -5.6401430677388e-05
  50    0.00014767918573875
  51    2.1999742490781e-05
  52    -4.2301911417238e-06
  53    6.6698358458422e-06
  54    -0.00017254719910686
  55    -3.5471140966606e-05
  56    -1.1467685735219e-06
  57    -2.0705385097543e-06
  58    1.2712482372011e-06
  59    3.2580102636391e-06
  60    3.9246709445645e-07
  61    -4.0827730641086e-06
  62    9.6580358146808e-05
  63    0.00016112953024274
  64    -0.00069466194134713
  65    -3.8500602974365e-06
  66    -2.0798319250873e-05
  67    -5.1259729515122e-05
  68    -3.4577309994301e-05
  69    0.00034300353758423
  70    -0.00028270300102238
  71    -1.2763068658337e-05
  72    -4.2355950832659e-06
  73    2.1134597563913e-05
  74    -2.7079298828627e-06
  75    1.6789850732333e-05
  76    -0.00020373314882699
  77    -6.3134340038423e-06
  78    1.3980087707588e-05
  79    0.00014364262243178
  80    -7.1310723781598e-05
  81       1.0010318912486
  82    0.00081266253097228
  83    -0.0057954390987855
  84    0.00073539714125071
  85    0.0019921786994743
  86    -0.0010666544956162
  87    -0.00029113410190546
  88    -0.00049129728520879
  89    0.0003589731398293
  90    1.5121091267168e-05
  91    3.1621720091738e-05
  92    8.496729116866e-05
  93    7.1138748700208e-05
  94    -6.770383019021e-05
 Sym= A
 Ene=               3
 Spin= Alpha
 Occup=    1.00000
   1    4.0338072195491e-05
   2    4.0974311879895e-05
   3    -0.0012660497968256
   4    -0.00014366110539788
   5    1.0595546496667e-05
   6    -2.2585082045276e-05
   7    -0.00066169361368115
   8    -0.00010037848148706
   9    0.00028840385919838
  10    2.9861744112546e-05
  11    1.9466073042766e-05
  12    -3.3384109099401e-05
  13    -8.0096058262562e-05
  14    -6.5335189249142e-06
  15    -0.00018160795126199
  16    0.00029784600399781
  17    0.0035198741441834
  18    0.00040484973709136
  19    0.00081834775017838
  20    -0.00050467675057943
  21    -0.00021254306172659
  22    0.0011773619934823
  23    -0.0011923819857873
  24    -4.1843122739677e-05
  25    -6.3119178430919e-05
  26    -9.6677493790984e-05
  27    -5.9425288080996e-05
  28    8.6244053517726e-05
  29    -0.00020370004999967
  30    -6.3263018306775e-06
  31    -1.3975392241899e-05
  32    -0.00013356955863183
  33    8.8738725793315e-05
  34    9.6580902787039e-05
  35    0.00016110030682248
  36    -0.00069471328873866
  37    3.8630053510523e-06
  38    -3.4058275553485e-05
  39    -4.3667625180877e-05
  40    3.4585190823735e-05
  41    -0.00041638446464751
  42    0.00015568033061054
  43    1.9203605201305e-05
  44    -1.2421754445904e-05
  45    -1.7852462415175e-07
  46    1.574680697495e-05
  47    1.2063525180526e-05
  48       1.0010318911321
  49    0.00081180802089363
  50    -0.0057964528252679
  51    -0.000735481328867
  52    -0.0019206909943666
  53    0.0011918679511097
  54    0.00029108414507181
  55    0.00055595270926393
  56    -0.00024605668760733
  57    1.5619403786295e-05
  58    4.2821900776542e-05
  59    8.4618474111094e-05
  60    7.1417055565965e-05
  61    -6.1228101580193e-05
  62    1.7703601765352e-05
  63    3.3922978808143e-05
  64    3.3924526973042e-05
  65    3.1754321332252e-05
  66    -8.315724136201e-06
  67    -1.3348709738705e-05
  68    -0.00013376356440351
  69    -7.109485106636e-06
  70    3.4211057567772e-05
  71    7.3467723453607e-06
  72    -7.1809431838216e-06
  73    -5.1029714386344e-06
  74    -2.3469313171614e-05
  75    -8.7734988868397e-06
  76    5.2105210401458e-05
  77    -0.00014286945160825
  78    -4.6892726477151e-05
  79    -2.1774501369508e-06
  80    -1.5614712765055e-06
  81    -3.0994287291112e-05
  82    -5.640193451142e-05
  83    0.00014767529918939
  84    -2.2001066340155e-05
  85    7.8890680052898e-06
  86    -3.2788225413059e-07
  87    0.00017254614979924
  88    1.6737683166865e-05
  89    -3.1292627196928e-05
  90    2.447576670139e-06
  91    2.9003992193297e-06
  92    2.4647123991069e-07
  93    3.0009286936065e-06
  94    -3.1426144567532e-06
 Sym= A
 Ene=               4
 Spin= Alpha
 Occup=    1.00000
   1    -0.00017107876485574
   2    0.00031237745539123
   3    0.0031635126611631
   4    -0.00043038792517409
   5    -3.1915269651677e-05
   6    -0.00095960570970756
   7    5.0486715305154e-05
   8    -0.00037757011671703
   9    -0.001618571635849
  10    0.00011997130017541
  11    0.00010102991512597
  12    -5.4075296315566e-06
  13    1.7511183552063e-05
  14    1.213948344254e-05
  15    2.582357316124e-05
  16    2.174950262948e-05
  17    -0.0010660972294674
  18    0.00017212327771523
  19    -5.3539190069134e-06
  20    -1.8277398395413e-06
  21    0.00026554816303754
  22    0.00012558733233687
  23    0.00031364225596835
  24    7.1708860883294e-05
  25    -1.1161897498916e-05
  26    2.5856702139462e-06
  27    -3.5606277179451e-05
  28    -1.372784118297e-05
  29    1.2029361913804e-05
  30    0.00013094363765406
  31    -1.8226478748212e-05
  32    -1.228048725558e-05
  33    -1.7328003846755e-05
  34    1.3395517152443e-05
  35    2.478289470253e-05
  36    5.6123527662147e-05
  37    -4.0486515970817e-05
  38    -1.964110243838e-05
  39    -5.3009079982393e-07
  40    0.00018566639832434
  41    5.0260177352906e-05
  42    1.1645821012669e-05
  43    1.6909055459474e-05
  44    -4.3394799576728e-07
  45    -3.3089577508429e-07
  46    -1.895302069864e-05
  47    1.3335152541662e-05
  48    1.6851747900605e-05
  49    3.3076441974949e-05
  50    1.1470752681398e-05
  51    -3.04195654075e-05
  52    1.6245575058008e-05
  53    7.9481263396702e-06
  54    0.00013382257184169
  55    -5.2104212780456e-05
  56    -7.4770924483121e-06
  57    1.1360894777644e-05
  58    -2.0174641158782e-06
  59    -2.3689294996874e-06
  60    -1.7605060167709e-05
  61    -1.344512470892e-05
  62       1.0010291129371
  63    0.00081247804830286
  64    -0.0057666777529521
  65    0.00071600269565188
  66    5.7140121112804e-05
  67    0.0022572467061575
  68    -0.00029364279821353
  69    5.1750953924177e-05
  70    -0.00060738545456816
  71    -0.00011159446655472
  72    -7.6694521595951e-05
  73    -1.5563009842096e-06
  74    -4.959608376434e-06
  75    -6.8932142566423e-06
  76    -0.00020453637530461
  77    -5.7512026835011e-05
  78    1.9840790033512e-06
  79    1.0212966576048e-05
  80    0.00016264980836551
  81    9.5099755656732e-05
  82    0.00015810655905481
  83    -0.00066648793997523
  84    2.7927470665906e-11
  85    -5.6137644026673e-05
  86    1.0572698465618e-05
  87    -4.9632879917573e-05
  88    -6.696441680848e-05
  89    0.00042613297903655
  90    -9.8492364857922e-06
  91    1.6645264908485e-05
  92    2.1695526470408e-05
  93    -5.0204785852479e-06
  94    3.4332726538015e-06
 Sym= A
 Ene=               5
 Spin= Alpha
 Occup=    1.00000
   1    2.5825080131197e-05
   2    2.1779079369273e-05
   3    -0.0010660523285136
   4    -0.00017210156104583
   5    1.1136263601991e-06
   6    -5.5347008765326e-06
   7    -0.00026552560329219
   8    0.00020884529501102
   9    0.00026559214510109
  10    1.6101015657455e-05
  11    1.7469133194058e-05
  12    3.9656375151405e-05
  13    -6.7710264991631e-05
  14    2.8000069134323e-06
  15    -0.00017107669108803
  16    0.00031235768274647
  17    0.0031635039663865
  18    0.00043037912569236
  19    -0.00081511605510114
  20    -0.00050742607492765
  21    -5.0467054721044e-05
  22    -0.0012129361069084
  23    -0.0011362691604183
  24    -3.0435212306352e-05
  25    -6.103452635889e-05
  26    9.4862340426487e-05
  27    -6.9308346631033e-05
  28    -8.144881479262e-05
  29    -0.00020456171073002
  30    -5.7534004502831e-05
  31    -1.9851385072001e-06
  32    0.0001357521634887
  33    9.0170747115558e-05
  34       1.0010291133995
  35    0.00081249752218476
  36    -0.0057666616527986
  37    -0.00071564388219774
  38     0.001926375131393
  39    0.0011782035766521
  40    0.00029389261437386
  41    -0.00055181058658381
  42    -0.00025881077673299
  43    1.6005137632757e-05
  44    4.4320145077987e-05
  45    -8.6618662926333e-05
  46    6.870495677948e-05
  47    6.2978191099593e-05
  48    9.5101140942961e-05
  49    0.00015806775029487
  50    -0.00066652831663012
  51    -2.0376731624185e-08
  52    3.7348774365379e-05
  53    -4.3303064978481e-05
  54    4.9616249203884e-05
  55    0.00040260850399597
  56    0.0001550952857316
  57    2.0765099741856e-05
  58    -1.1296363841365e-05
  59    1.2886535669478e-06
  60    1.2656800216708e-05
  61    -1.2700120287598e-05
  62    1.3395658421677e-05
  63    2.4780341461281e-05
  64    5.6120613567051e-05
  65    4.0471667557392e-05
  66    9.3529333130394e-06
  67    -1.7280731238096e-05
  68    -0.00018568139790001
  69    -1.5052165359497e-05
  70    4.9346549862426e-05
  71    9.9487854904906e-06
  72    -1.1331737973986e-05
  73    4.3094768469139e-06
  74    -2.2971969414339e-05
  75    7.0437601622996e-06
  76    1.2050296831136e-05
  77    0.00013094051525717
  78    1.8229437665541e-05
  79    -8.8675753859853e-06
  80    -1.9299803324819e-05
  81    1.6851569528901e-05
  82    3.3077891542327e-05
  83    1.1474264551862e-05
  84    3.0419659023957e-05
  85    -1.2447121916369e-06
  86    1.8043949038553e-05
  87    -0.00013382601444408
  88    1.9573424130666e-05
  89    -4.8863308913476e-05
  90    8.2378679067316e-06
  91    1.2652800606174e-05
  92    -2.8705418737226e-07
  93    -1.9408399656503e-05
  94    -4.9749699443556e-06
 Sym= A
 Ene=               6
 Spin= Alpha
 Occup=    1.00000
   1    -0.00098289102802637
   2    -0.015292031159895
   3    -0.018848696824662
   4     0.015509965749879
   5     0.033018543167896
   6    -0.016424876336084
   7     0.014085557035144
   8     0.042779017571779
   9    -0.019816694844952
  10     0.010935558076046
  11    -0.017337819883625
  12    -0.035488602074373
  13    -0.0092359093755612
  14    -0.0068557153317473
  15    -0.0023132443053137
  16    -0.014259165684013
  17    -0.012088736926716
  18     0.025781252636152
  19    -0.0029129976363116
  20    0.0044546321552916
  21     0.012347899113219
  22    -0.010936943018644
  23    -0.0085499339740671
  24    0.0014295952146085
  25    -0.00015797705048052
  26    0.00049486754801193
  27    0.00039636969119802
  28    -9.829323504364e-05
  29     0.011805039079981
  30     0.014445979137342
  31    0.0011745840725967
  32    0.00015656142671133
  33    -0.00098109573415403
  34    0.00093788060756028
  35    0.0018469466464152
  36    -0.0075551371042728
  37    -0.0042626457025836
  38    -0.001823821539713
  39    0.0003417394045417
  40    -0.0048144461582603
  41    -0.0033416555282043
  42    0.00019357281363414
  43    0.0002808398744608
  44    0.00020624981444875
  45    5.3925034452532e-06
  46    -0.00011226628391459
  47    0.00018650640874493
  48    -0.00096129656928034
  49    -0.0050294508457245
  50    -0.001663138594039
  51    0.0084202132313783
  52    0.0043183590591064
  53    0.0023837124237848
  54     0.001732619666655
  55    0.0040884469566333
  56    8.7267462871608e-06
  57    -6.0222949406312e-06
  58    0.00078755852594517
  59    0.0001808208077438
  60    0.00057000196962705
  61    -0.00013852611919038
  62    -0.00038931792899416
  63    -0.002897542786131
  64    -0.00072670610765975
  65      0.32905177612517
  66      0.56283184055223
  67     -0.12550701386363
  68      0.22851770492762
  69      0.38751579570062
  70    -0.084700459732739
  71    -0.004960226842223
  72    0.0061717446367272
  73     0.011883598513265
  74    0.0019147802041138
  75    0.0048875347263555
  76    -0.020805719767387
  77    -0.016692439489921
  78    0.0006480417273304
  79    -0.00086261047842082
  80    0.00072232636436764
  81    -0.0015310560043023
  82     0.014239131100231
  83     0.049667396267871
  84    0.0062164951842544
  85     0.032113796061813
  86    -0.032904279797845
  87    0.0057801116429556
  88      0.02925097058452
  89    -0.031117432068829
  90    -0.00040382424220439
  91    -0.00069109407280433
  92    -0.0004252650151067
  93    3.8712862820682e-05
  94    -0.00030159839083172
 Sym= A
 Ene=               7
 Spin= Alpha
 Occup=    1.00000
   1    -0.002230881873066
   2    -0.0011605462610789
   3     0.019074851840326
   4    0.00056826170224212
   5    -0.0021930657547742
   6    -0.00070696764047087
   7     0.035971397545013
   8    -0.016144290596365
   9     0.013254275545759
  10     0.017591320831699
  11    -0.028219440408019
  12     0.022703972935198
  13    -0.014887050327978
  14    0.0040377490095686
  15    -0.0023672486372857
  16    -0.027113212017588
  17    -0.066394849061864
  18     0.048953345803603
  19    0.0036057632237777
  20    0.0068008677849588
  21      0.04046383542294
  22    0.0063484240385948
  23    -0.024103933831198
  24    0.0024824397258139
  25    -0.0012654174774405
  26    0.00020431069776122
  27    -0.00052090862063821
  28    -0.001198857962091
  29     0.016962213854879
  30     0.024927519585492
  31    0.0020427639924323
  32    5.424807397096e-05
  33    -0.001296996185452
  34    -0.00073035067951602
  35    -0.0038321638847136
  36    -0.0014356471826908
  37    0.0048108844005987
  38    -0.003029692234015
  39    0.0049166301441588
  40    -0.0052123785757661
  41    -0.0037607319286167
  42    0.0028013807202051
  43    0.00012621227725702
  44    0.0010481745033524
  45    -0.00021417736078614
  46    0.00056479097256676
  47    0.00033164708632619
  48    0.00050435468448092
  49    -0.00020120884959552
  50    -0.0071754767010095
  51    -0.00075632860435597
  52    0.0023000226212064
  53    0.0014489787411099
  54    -0.0061241037040411
  55    0.0033040025738233
  56     0.001299397633148
  57    0.0003191361459526
  58    0.00059246292734848
  59    5.4292238971331e-05
  60    9.8507597538212e-05
  61    -0.00041834375913519
  62    -0.0011852525997356
  63    -0.0029151301002478
  64    0.0084244599743809
  65      0.54114418386055
  66     -0.35543790875119
  67     -0.16997275262499
  68      0.37564695729103
  69      -0.2458036412958
  70     -0.11481472858496
  71    -0.0059513536016034
  72    0.0098347027139228
  73    -0.0071966366214139
  74    0.0040253225778252
  75    -0.0023065446917824
  76     0.051705687497965
  77     0.048385055936298
  78    -0.0019321428133847
  79    0.0011151983998409
  80    -0.0028103366127776
  81    0.00061514997099204
  82    -0.0002536823786881
  83    -0.0087224692273803
  84    -0.0034644373768356
  85    -9.9519167064713e-05
  86    0.0030542625057882
  87    -0.0056955956044416
  88    -0.0017136119484492
  89    0.00069489325188165
  90    0.00041804481131725
  91    -0.00043079805745469
  92    0.00041334439090424
  93    -0.00046261944394433
  94    -4.3825634890545e-05
 Sym= A
 Ene=               8
 Spin= Alpha
 Occup=    1.00000
   1    0.0023673091422397
   2     0.027115221184781
   3     0.066399794356653
   4     0.048958199842605
   5    -0.0040867637079257
   6    -0.0065223731643697
   7     0.040467753547451
   8     0.024048667107383
   9    0.0065569625772147
  10    -0.00018104137614718
  11    -0.001670382852649
  12    -0.0017387544724873
  13    0.0018493660498524
  14    -0.0004958012066937
  15     0.002229330041324
  16    0.0011497013211292
  17    -0.019075473774946
  18    0.00056417893569186
  19    -0.00046487986107961
  20    0.0022597146598727
  21     0.035973701641633
  22    -0.019543524921926
  23    0.0073491813596463
  24    -0.024494938978403
  25    -0.010614860424175
  26    -0.018098148106355
  27     0.010904057713081
  28    -0.026458841951667
  29    -0.051701956971829
  30    -0.048379062477514
  31    -0.0019324186999481
  32    0.0029917573751979
  33    0.00043975168385662