[Molden Format]
made by pyscf v[2.0.1]
[Atoms] (AU)
C   1   6     0.00000000000000     0.00000000000000     0.00000000000000
C   2   6     2.85272299873892     0.00000000000000     0.00000000000000
H   3   1     3.62066923017674     0.00000000000000     1.90331545357504
F   4   9     3.65943188126013    -2.04308229183900    -1.24074875274501
F   5   9     3.65943188126013     2.04308229183900    -1.24074875274501
F   6   9    -0.80670888252121    -2.34423041954446     0.46714714892290
H   7   1    -0.76794623143782     0.65097222422570    -1.78853148675225
F   8   9    -0.80670888252121     1.49550828705447     1.86469774548472
[GTO]
1 0
 s    8 1.00
                  6665  0.00069158396281299
                  1000  0.0053257961529341
                   228   0.027060721042034
                 64.71    0.10165684614077
                 21.06     0.2745748236174
                 7.495    0.44829431892377
                 2.797    0.28490261071525
                0.5215   0.015194859206082
 s    8 1.00
                  6665  -0.00029326965268655
                  1000  -0.0023180354739745
                   228  -0.011499786038565
                 64.71  -0.046826727009787
                 21.06   -0.12846616875047
                 7.495   -0.30126627246289
                 2.797   -0.25563070233011
                0.5215      1.093793361012
 s    1 1.00
                0.1596                   1
 p    3 1.00
                 9.439   0.056979251590039
                 2.002    0.31320721150073
                0.5456    0.76037674173753
 p    1 1.00
                0.1517                   1
 d    1 1.00
                  0.55                   1

2 0
 s    8 1.00
                  6665  0.00069158396281299
                  1000  0.0053257961529341
                   228   0.027060721042034
                 64.71    0.10165684614077
                 21.06     0.2745748236174
                 7.495    0.44829431892377
                 2.797    0.28490261071525
                0.5215   0.015194859206082
 s    8 1.00
                  6665  -0.00029326965268655
                  1000  -0.0023180354739745
                   228  -0.011499786038565
                 64.71  -0.046826727009787
                 21.06   -0.12846616875047
                 7.495   -0.30126627246289
                 2.797   -0.25563070233011
                0.5215      1.093793361012
 s    1 1.00
                0.1596                   1
 p    3 1.00
                 9.439   0.056979251590039
                 2.002    0.31320721150073
                0.5456    0.76037674173753
 p    1 1.00
                0.1517                   1
 d    1 1.00
                  0.55                   1

3 0
 s    3 1.00
                 13.01   0.033498726389998
                 1.962    0.23480080117413
                0.4446     0.8136829578829
 s    1 1.00
                 0.122                   1
 p    1 1.00
                 0.727                   1

4 0
 s    8 1.00
                 14710  0.00072067370873197
                  2207  0.0055504869689163
                 502.8   0.028254207662589
                 142.6    0.10639582836653
                 46.47    0.28668420124307
                  16.7    0.44843796582416
                 6.356    0.26464118141135
                 1.316   0.015326060993048
 s    8 1.00
                 14710  -0.00032119389049893
                  2207  -0.0025461915683188
                 502.8  -0.012643359507821
                 142.6   -0.05195749170489
                 46.47   -0.14344713812646
                  16.7   -0.33243762329603
                 6.356   -0.21865906750347
                 1.316     1.0955904138622
 s    1 1.00
                0.3897                   1
 p    3 1.00
                 22.67   0.064834021493887
                 4.977    0.34053535983101
                 1.347    0.73464640679382
 p    1 1.00
                0.3471                   1
 d    1 1.00
                  1.64                   1

5 0
 s    8 1.00
                 14710  0.00072067370873197
                  2207  0.0055504869689163
                 502.8   0.028254207662589
                 142.6    0.10639582836653
                 46.47    0.28668420124307
                  16.7    0.44843796582416
                 6.356    0.26464118141135
                 1.316   0.015326060993048
 s    8 1.00
                 14710  -0.00032119389049893
                  2207  -0.0025461915683188
                 502.8  -0.012643359507821
                 142.6   -0.05195749170489
                 46.47   -0.14344713812646
                  16.7   -0.33243762329603
                 6.356   -0.21865906750347
                 1.316     1.0955904138622
 s    1 1.00
                0.3897                   1
 p    3 1.00
                 22.67   0.064834021493887
                 4.977    0.34053535983101
                 1.347    0.73464640679382
 p    1 1.00
                0.3471                   1
 d    1 1.00
                  1.64                   1

6 0
 s    8 1.00
                 14710  0.00072067370873197
                  2207  0.0055504869689163
                 502.8   0.028254207662589
                 142.6    0.10639582836653
                 46.47    0.28668420124307
                  16.7    0.44843796582416
                 6.356    0.26464118141135
                 1.316   0.015326060993048
 s    8 1.00
                 14710  -0.00032119389049893
                  2207  -0.0025461915683188
                 502.8  -0.012643359507821
                 142.6   -0.05195749170489
                 46.47   -0.14344713812646
                  16.7   -0.33243762329603
                 6.356   -0.21865906750347
                 1.316     1.0955904138622
 s    1 1.00
                0.3897                   1
 p    3 1.00
                 22.67   0.064834021493887
                 4.977    0.34053535983101
                 1.347    0.73464640679382
 p    1 1.00
                0.3471                   1
 d    1 1.00
                  1.64                   1

7 0
 s    3 1.00
                 13.01   0.033498726389998
                 1.962    0.23480080117413
                0.4446     0.8136829578829
 s    1 1.00
                 0.122                   1
 p    1 1.00
                 0.727                   1

8 0
 s    8 1.00
                 14710  0.00072067370873197
                  2207  0.0055504869689163
                 502.8   0.028254207662589
                 142.6    0.10639582836653
                 46.47    0.28668420124307
                  16.7    0.44843796582416
                 6.356    0.26464118141135
                 1.316   0.015326060993048
 s    8 1.00
                 14710  -0.00032119389049893
                  2207  -0.0025461915683188
                 502.8  -0.012643359507821
                 142.6   -0.05195749170489
                 46.47   -0.14344713812646
                  16.7   -0.33243762329603
                 6.356   -0.21865906750347
                 1.316     1.0955904138622
 s    1 1.00
                0.3897                   1
 p    3 1.00
                 22.67   0.064834021493887
                 4.977    0.34053535983101
                 1.347    0.73464640679382
 p    1 1.00
                0.3471                   1
 d    1 1.00
                  1.64                   1

[5d]
[7f]
[9g]

[MO]
 Sym= A
 Ene=               0
 Spin= Alpha
 Occup=    1.00000
   1       1.0019108088735
   2    0.0042225144772682
   3    -0.0074071465337381
   4    -0.00058441516177838
   5    -0.00035254079043354
   6    0.0010664661413135
   7    -0.0015836651569724
   8    -0.0002047006192534
   9    0.00070719771998722
  10    -2.9836627676478e-05
  11    -0.00010849376993648
  12    0.00016049781687256
  13    -0.00030355141965637
  14    3.5851072460024e-05
  15    -0.0002136602162405
  16    6.9779369712131e-05
  17    0.0031895250795847
  18    -0.00047466730398205
  19    8.0733630913743e-06
  20    7.9342342708705e-06
  21    -0.0015493280660357
  22    5.3869465103139e-05
  23    -0.00043653640872752
  24    -4.3314500440539e-05
  25    9.0454711223883e-05
  26    -1.2750022069528e-05
  27    7.7974892337699e-05
  28    -4.1006635849309e-05
  29    -4.8783352853718e-05
  30    0.00043150500431798
  31    -9.7759130546276e-05
  32    3.6552325015932e-06
  33    -2.2731518751082e-05
  34    -1.0197864320181e-05
  35    -8.3287958780699e-06
  36    -0.00013609512123493
  37    -8.3712415808138e-06
  38    1.3583063044655e-05
  39    -4.9173582445735e-06
  40    -9.669023994704e-05
  41    -9.1283737929469e-05
  42    2.1946818664302e-05
  43    -1.9724053466055e-05
  44    -1.1520971609443e-05
  45    1.0991310145646e-05
  46    2.6074678390321e-05
  47    -1.2789025777452e-05
  48    3.4670291623863e-06
  49    1.314530870147e-05
  50    -0.00021616120404586
  51    8.2943649533504e-07
  52    -6.3786698597853e-06
  53    -1.1583061312833e-05
  54    -4.7912438635567e-05
  55    8.1751714423779e-05
  56    4.8481085199032e-05
  57    -1.6454967763276e-05
  58    -1.1717985282368e-05
  59    -1.4956311447943e-05
  60    2.051415467652e-05
  61    8.1709773779995e-06
  62    0.00014750051245208
  63    0.00066033653916886
  64    -0.0001013137790195
  65    7.5438264981562e-05
  66    0.00033779560265708
  67    -2.924557060385e-05
  68    -0.00013370919333162
  69    -0.00085563118959794
  70    0.00011156590657506
  71    8.7770313186563e-05
  72    4.0168208298158e-06
  73    3.5712489825948e-05
  74    0.00011175435260015
  75    -7.5071342011354e-05
  76    0.00096960536996233
  77     0.001541877981088
  78    0.00022190136605634
  79    -3.0729295174528e-05
  80    6.1590415236845e-05
  81    0.00016017370581697
  82    0.00068525283109915
  83    -0.00017980911072228
  84    7.2710641485336e-05
  85    -0.0002380686862792
  86    -0.00023764035674463
  87    -0.00014139589173789
  88    0.00059801934093784
  89    0.00065657008863732
  90    -3.9887854198244e-05
  91    5.3494023367132e-05
  92    -0.0001413131830627
  93    4.1081696816705e-05
  94    5.7885912168732e-05
 Sym= A
 Ene=               1
 Spin= Alpha
 Occup=    1.00000
   1    -0.00021365677876194
   2    6.9819114203491e-05
   3    0.0031895419019476
   4    0.00047474003363415
   5    1.0300012574175e-05
   6    -4.6934886869956e-06
   7    0.0015493437472107
   8    -9.8683194529954e-05
   9    0.0004286395480978
  10    -3.651924416425e-05
  11    9.9028046560212e-05
  12    8.8179154717248e-06
  13    8.1905925541198e-05
  14    7.5976606950187e-06
  15       1.0019108086116
  16     0.004222519577271
  17    -0.0074071052875522
  18    0.00058431772675929
  19    3.3506138008284e-05
  20    -0.0011226743552169
  21    0.0015836345015547
  22    4.952521274239e-05
  23    -0.00073455565038752
  24    -8.3196435906753e-05
  25    -0.00011420439116413
  26    -8.7855973341358e-06
  27    -0.00033434822399848
  28    3.4203562462495e-06
  29    0.00096961662057759
  30    0.0015418771233561
  31    -0.00022190390023835
  32    -7.8101492647459e-06
  33    -6.8385243802066e-05
  34    0.00014750223672269
  35    0.00066029005801357
  36    -0.00010136061637492
  37    -7.5429045126886e-05
  38    0.00030733448091849
  39    0.00014298032000637
  40    0.00013371930689071
  41    -0.00076592731149234
  42    -0.00039750251474064
  43    4.1168964524428e-05
  44    2.9450857662503e-05
  45    -0.00011213644424167
  46    8.4851534423026e-05
  47    6.9171073621248e-05
  48    0.00016017480424767
  49    0.00068524042735218
  50    -0.00017982777934813
  51    -7.274804101277e-05
  52    -0.00030493561720741
  53    0.00014188799758684
  54    0.00014137504978908
  55    0.0007865501664466
  56    -0.0004124379391684
  57    4.1615090134459e-05
  58    3.0468775394636e-05
  59    0.0001172540788319
  60    8.8139521059757e-05
  61    -7.269033267553e-05
  62    -1.0197659533379e-05
  63    -8.3318380442615e-06
  64    -0.00013610189635966
  65    8.354328847011e-06
  66    1.1079014173533e-05
  67    9.2637454626407e-06
  68    9.6673902774182e-05
  69    -7.8274821614293e-05
  70    -5.1846997282613e-05
  71    -2.5023275937819e-05
  72    -6.4521709913688e-06
  73    -5.8202183101264e-06
  74    2.3015564014849e-05
  75    1.5958681266241e-05
  76    -4.8788796257759e-05
  77    0.00043149758658871
  78    9.7761077500681e-05
  79    -4.3397114988726e-06
  80    2.2610520099691e-05
  81    3.4668581428031e-06
  82    1.3143792466914e-05
  83    -0.00021616712752506
  84    -8.4107204907126e-07
  85    -9.9488670227792e-06
  86    8.7125065477205e-06
  87    4.7899811906065e-05
  88    9.3407670352837e-05
  89    -1.7590529357676e-05
  90    -7.3205320129174e-06
  91    -1.3806429687193e-05
  92    1.4023865938514e-05
  93    2.5788574143288e-05
  94    -3.6707894658506e-06
 Sym= A
 Ene=               2
 Spin= Alpha
 Occup=    1.00000
   1    5.1199069317708e-05
   2    5.6244035039207e-05
   3    -0.0014113315282835
   4    -0.00012782942664062
   5    -1.1980138513748e-05
   6    -8.0199075752493e-06
   7    -0.000764030978219
   8    0.00026671826774194
   9    0.00020347793221113
  10    1.1816888717156e-06
  11    9.3156604182039e-06
  12    3.453520496773e-05
  13    -8.2060376943912e-05
  14    1.1978115308755e-05
  15    -0.00018523535117678
  16     0.000296713435953
  17    0.0036645335702562
  18    0.00039742670144068
  19    -0.00082416269649591
  20    -0.00051404806859628
  21    -0.00022631363559396
  22    -0.0012174671058558
  23    -0.0011223232282682
  24    -3.8334624953376e-05
  25    -6.914594159027e-05
  26    9.4530289568516e-05
  27    -5.7987817477647e-05
  28    -7.309814980915e-05
  29    -0.00022193148048071
  30    -6.1644713062041e-05
  31    -1.1987244022227e-05
  32    0.0001360165623165
  33    9.401683543637e-05
  34       1.0010290581978
  35    0.00077520873731335
  36    -0.0058265169691424
  37    -0.00072752715029963
  38    0.0019538607681756
  39    0.0011877778138609
  40    0.00027129511685729
  41    -0.00054646294682949
  42    -0.00023974690386176
  43    1.3312418036248e-05
  44    4.1227591327078e-05
  45    -8.462713648932e-05
  46    7.1564499197759e-05
  47    6.1363557295617e-05
  48    9.2831692745106e-05
  49    0.00015343732245689
  50    -0.0006770593747243
  51    4.2700666101663e-06
  52    3.5650510588522e-05
  53    -4.3811167440029e-05
  54    3.1045860285948e-05
  55    0.00041903197216505
  56    0.00014811952012679
  57    1.8604429666829e-05
  58    -1.2509832325838e-05
  59    2.1890817101404e-06
  60    1.7164512950466e-05
  61    -1.1239397316466e-05
  62    -3.3351159889891e-06
  63    -8.6630320973745e-06
  64    8.8058932500078e-05
  65    -3.3180139499551e-06
  66    -1.3547754967905e-05
  67    2.6280826669629e-05
  68    -2.8002260259746e-05
  69    3.206012544489e-05
  70    -5.5888664729351e-05
  71    1.3218211288742e-05
  72    7.2665723797855e-06
  73    4.6290146543784e-06
  74    -1.4259106528646e-05
  75    -3.237853670782e-06
  76    0.00011789138008892
  77    -0.00012659481131731
  78    -3.0179733877825e-05
  79    -9.6430381998639e-06
  80    -1.121502452628e-06
  81    -2.3829704996845e-05
  82    -4.158689574901e-05
  83    0.0001075126320293
  84    -2.4205621548259e-05
  85    -8.3192617483666e-06
  86    -5.8415153609345e-06
  87    0.00019286760594074
  88    -2.4855992237233e-05
  89    -1.3018352018852e-05
  90    -6.8449321357009e-06
  91    1.4396876032355e-06
  92    7.7732835206212e-07
  93    -2.0419221151851e-06
  94    -1.3411554655063e-06
 Sym= A
 Ene=               3
 Spin= Alpha
 Occup=    1.00000
   1    -0.00018530414696296
   2    0.0002961769607533
   3    0.0036644225525464
   4    -0.00039715500277117
   5    -0.0009495124731635
   6    0.00020100355438886
   7    0.00022631967275601
   8    -0.0015279218815766
   9    0.00063826625620112
  10    -7.8321507573427e-05
  11    -3.9969274586923e-05
  12    -3.2360244690629e-05
  13    -8.1060019377866e-05
  14     9.22922810771e-05
  15    5.1192513031459e-05
  16    5.624505440383e-05
  17    -0.0014112507078394
  18    0.00012780477805607
  19    -1.3982733281878e-05
  20    3.4474031081048e-06
  21    0.00076399383207368
  22    0.00032024564178142
  23    -0.00010003196092122
  24    -9.9344317032454e-06
  25    4.6655813595942e-06
  26    -7.3118135415043e-07
  27    -8.8484621050814e-05
  28    -1.4477387396471e-05
  29    0.00011790675664078
  30    -0.00012657195767734
  31    3.0177752405347e-05
  32    -9.442783528959e-06
  33    -2.2453446860978e-06
  34    -3.334948926499e-06
  35    -8.6651015878074e-06
  36    8.8036698990761e-05
  37    3.3061056809465e-06
  38    -3.7292163247965e-06
  39    -2.9322770178802e-05
  40    2.7989764541166e-05
  41    1.0994528003352e-05
  42    6.3492804068159e-05
  43    9.766096334636e-06
  44    7.9351598509373e-06
  45    -6.3225209166862e-06
  46    -1.6250375959753e-05
  47    5.5761575086561e-07
  48    -2.3829668143732e-05
  49    -4.1613448106088e-05
  50    0.00010746396580334
  51    2.429311805345e-05
  52    -9.7895412179119e-06
  53    2.6199032236358e-06
  54    -0.00019280736203468
  55    -2.779115630923e-05
  56    3.7217378613546e-06
  57    -5.8698147222898e-06
  58    1.812004789217e-06
  59    3.8710916159988e-06
  60    -1.4783118479521e-06
  61    7.6720735245186e-07
  62       1.0010290632108
  63    0.00077794784500291
  64    -0.0058232741609931
  65    0.00072697586463936
  66    0.0022399034865637
  67    -0.00044811304728095
  68    -0.00027165526685288
  69    -0.00059708834006527
  70    3.821618535644e-05
  71    5.0871085385319e-05
  72    1.7754869189802e-05
  73    3.4425078626653e-05
  74    9.3278725375494e-05
  75    -7.1796411786906e-05
  76    -0.00022194261530917
  77    -6.1537519193443e-05
  78    1.2002623585651e-05
  79    0.00015999807266794
  80    -4.1829750061371e-05
  81    9.2833150826446e-05
  82    0.00015351079938079
  83    -0.00067698756535856
  84    -4.3251676313843e-06
  85    1.8210796168114e-05
  86    5.3353518835422e-05
  87    -3.1091554520107e-05
  88    0.0004441967362402
  89    4.126828000059e-06
  90    1.2385374738173e-05
  91    -7.9133454035203e-06
  92    -1.7552787029619e-05
  93    1.3576822088001e-05
  94    1.4839926504903e-05
 Sym= A
 Ene=               4
 Spin= Alpha
 Occup=    1.00000
   1    5.4850160728794e-05
   2    6.9248757798248e-05
   3    -0.0013094876690807
   4    -0.00014643170384055
   5    2.4585709591623e-05
   6    -1.9734184101599e-05
   7    -0.00062470366038608
   8    -0.00015562758479679
   9    0.00030401372552675
  10    3.0317226005291e-05
  11    3.6763058928715e-05
  12    -5.0773951144346e-05
  13    -7.2657219871499e-05
  14    -9.0636868774237e-06
  15    -0.00017326482092636
  16    0.00030426726074225
  17    0.0034570487393403
  18    0.00039505644065964
  19    0.00080365791547185
  20    -0.00050485435792644
  21    -0.00016594775502698
  22      0.00118396429818
  23    -0.0010678139996251
  24    -2.5534013258373e-05
  25    -4.6842222183009e-05
  26    -9.766599529852e-05
  27    -5.7454811259391e-05
  28    8.0871323095628e-05
  29    -0.00023712366231071
  30    -6.2856279147346e-05
  31    -7.1798058814183e-06
  32    -0.00013496702928043
  33    9.7734131991651e-05
  34    8.8599501867889e-05
  35    0.00014617678870632
  36    -0.00063802070431918
  37    1.6574114608547e-06
  38    -3.6563299802867e-05
  39    -3.9191258574249e-05
  40    3.2532447404856e-05
  41    -0.00039221749769457
  42    0.00014076723969032
  43    1.8119837877638e-05
  44    -1.2101277988352e-05
  45    -1.0745008777788e-06
  46    1.4655035128507e-05
  47    1.1235872657846e-05
  48        1.001022424963
  49    0.00084928104501012
  50    -0.0056700358245459
  51    -0.00074546521973662
  52    -0.0018953063095747
  53    0.0011339253311266
  54    0.00026988033299025
  55    0.00054676878730921
  56    -0.00028392457334379
  57    1.1732582499722e-05
  58     4.29207276481e-05
  59    8.643848524903e-05
  60    7.0570372316469e-05
  61    -5.8507387831805e-05
  62    -2.548834866835e-05
  63    -4.562128517023e-05
  64    0.00013398561100881
  65    -1.6305116768903e-05
  66    7.5250274045796e-06
  67    4.9058130051531e-06
  68    0.00014647645445409
  69    2.6765999305854e-05
  70    -4.5277206776561e-05
  71    4.7790498814609e-06
  72    1.5493083782201e-06
  73    -8.5544842758508e-06
  74    1.9741944945284e-06
  75    -3.4335585001018e-06
  76    6.9749668180394e-05
  77    -8.5684439518566e-07
  78    -6.180452142258e-05
  79    -1.4455079750041e-05
  80    -1.6363635179405e-05
  81    2.9731739842302e-05
  82    6.2187992007453e-05
  83    -5.6163991184152e-05
  84    2.6761826818385e-05
  85    -5.949079724654e-06
  86    -3.4351186741901e-06
  87    -5.1804144964459e-05
  88    -1.3985814357453e-05
  89    -1.142136421906e-05
  90    9.9220284519905e-06
  91    8.7272811705441e-06
  92    3.7174080338691e-06
  93    -1.308850839071e-05
  94    -4.5543731342336e-06
 Sym= A
 Ene=               5
 Spin= Alpha
 Occup=    1.00000
   1    -0.00017321890585491
   2    0.0003045976656661
   3    0.0034570996496943
   4    -0.00039520286878049
   5    0.00058289938566156
   6    0.00074965892842947
   7    0.00016598985367623
   8    0.00074749302853986
   9    0.0014082873668148
  10    3.9081749431528e-05
  11    -7.1655126639386e-05
  12    0.0001075524965503
  13    -2.0189534452019e-05
  14    -5.9977051587533e-05
  15    5.4844852936441e-05
  16    6.9206936462151e-05
  17    -0.0013095054340221
  18    0.00014649503972131
  19    1.6365689647968e-05
  20    2.6983033227816e-05
  21    0.00062479253323729
  22    -4.2270802952443e-05
  23    -0.00033879330140083
  24    6.0619927521074e-05
  25    3.7625827618166e-05
  26    4.5376739780953e-05
  27    -5.5160682206451e-05
  28    -4.0690814107514e-06
  29    6.9736521888693e-05
  30    -9.6868521198186e-07
  31    6.1808724314986e-05
  32    -1.9178759935427e-05
  33    1.0435619210349e-05
  34    -2.548886641174e-05
  35    -4.5605943644642e-05
  36    0.00013402589603461
  37    1.6259798284698e-05
  38    8.7738189541663e-06
  39    -2.0254242509576e-06
  40    -0.00014652408377542
  41    9.6867018555714e-06
  42    5.1697549032487e-05
  43    8.5029373385869e-06
  44    2.6302769159915e-06
  45    3.2582220030002e-06
  46    4.1230217080705e-06
  47    2.697540532918e-06
  48    2.9728311830586e-05
  49    6.2180417506454e-05
  50    -5.6139989729768e-05
  51    -2.6751085226972e-05
  52    -6.7752364431235e-06
  53    1.1722172254466e-06
  54    5.1798246103566e-05
  55    -1.706001216942e-05
  56    5.9289256013431e-06
  57    7.4378970197113e-06
  58    9.7582088635266e-06
  59    -4.1640752807868e-06
  60    -1.4523063281035e-05
  61    1.2929665077777e-06
  62    8.8592232579161e-05
  63    0.00014621237200508
  64    -0.00063787647309898
  65    -1.6242323293353e-06
  66    -4.7666792666337e-05
  67    2.4288751188177e-05
  68    -3.2499640574865e-05
  69    -0.00032033132979082
  70    -0.00026644696677813
  71    1.4048376962021e-05
  72    -1.5210873861082e-05
  73    -1.3971101192777e-05
  74    1.2301722521498e-05
  75    -6.4186869622058e-06
  76    -0.00023720789007302
  77    -6.3003257194324e-05
  78    7.1718382761383e-06
  79    -9.3393451290528e-05
  80    -0.00013798776088457
  81       1.0010224237643
  82    0.00084721196460051
  83    -0.0056724685186199
  84    0.00074657768153452
  85    -0.0013928090606021
  86    -0.001715731904193
  87    -0.00026912530294865
  88    0.00041695881754712
  89    0.00045248012261137
  90    -4.5557166957731e-05
  91    6.0306861355442e-05
  92    -9.5406280114995e-05
  93    3.7485917203334e-05
  94    4.028743847453e-05
 Sym= A
 Ene=               6
 Spin= Alpha
 Occup=    1.00000
   1    0.0011777488462839
   2     0.014752907135672
   3     0.010695924316263
   4     -0.01625400632432
   5     0.023395394389766
   6     0.028479470710051
   7    -0.020373769880802
   8     0.023522607599461
   9     0.039758784131683
  10    0.0079457636430249
  11    -0.0097252968392752
  12    -0.031584175714443
  13     0.019466692222133
  14     0.015953169202795
  15    0.0018938358133202
  16     0.014867406615524
  17     0.015457729151504
  18    -0.023739552850762
  19    -0.0012180756794796
  20    -0.0047871239343752
  21    -0.019866544324056
  22    0.00062800960626136
  23    -0.015306917135828
  24    0.00040482210875916
  25    -7.9437249021115e-05
  26    0.0012535209576228
  27    0.00027514083251277
  28    0.00039321519687519
  29    -0.003478844881045
  30    0.0045703205957778
  31    -0.0001947179367879
  32    -0.00075591272628248
  33    -6.2081513070145e-05
  34    0.0015329956374226
  35     0.006802807406684
  36    -0.00031099046705659
  37     -0.01147734493198
  38    -0.00084829665032276
  39    0.0041391802351228
  40    -0.0022955762188576
  41    0.0011250064423113
  42    0.0045443052900542
  43    0.00042894115916751
  44    0.00015618418122539
  45    0.00029679311507239
  46    -0.00090045959530488
  47    -0.00084145423681074
  48    -0.00011180254862842
  49    -0.0024817716065813
  50    -0.005103233532852
  51    0.0068025253367961
  52    0.0029436458880312
  53    -0.0016623317793855
  54    0.0064235451769927
  55    0.0026591485270652
  56    -0.00075042622370366
  57    -0.00022384671678358
  58    -0.00015888835025895
  59    0.00015094206707769
  60    0.00038920657448539
  61    0.00038162961911783
  62    0.00037703145329656
  63    0.0025231983394786
  64    -0.00095630740904075
  65     -0.32476969115788
  66      0.21800444210073
  67      0.53686330445234
  68     -0.22517604356221
  69       0.1479895295568
  70      0.37032002641457
  71    -0.0037989778352208
  72    0.0058125863934419
  73     0.010216070794775
  74    -0.0070158516374393
  75    -0.0051949011791307
  76     0.022419914711547
  77     0.015830889240809
  78    -0.00069562232777601
  79    -0.0008139911410393
  80    -0.00062095978927016
  81    0.0014439418313024
  82    -0.014376423874608
  83    -0.048912714585395
  84    -0.0062206972855995
  85     0.037912142978463
  86     0.025561488239249
  87    -0.0051831555814875
  88     0.035869158078999
  89     0.022584584121591
  90    2.5301029147732e-05
  91    -0.00040686670709805
  92    -0.00051525675988901
  93    -0.00026590204703445
  94    0.00064753273217712
 Sym= A
 Ene=               7
 Spin= Alpha
 Occup=    1.00000
   1    0.0014389047777019
   2     0.033014399563793
   3      0.08494943167055
   4     0.042564459848947
   5    0.0017304898530786
   6    -0.010542558235817
   7     0.018837855286039
   8    -0.019895233132876
   9    -0.010104141378624
  10    0.00038783370171881
  11    -0.0010767202641395
  12    0.0013829363759808
  13      0.00178574263662
  14    0.00061022160259838
  15    0.0028039096636827
  16    0.0033892956194158
  17    -0.011341220220926
  18    0.00048846926270264
  19    0.0020265553339216
  20    -0.00031454937157125
  21     0.030192787029138
  22     0.019828124044445
  23     0.010163691879092
  24    -0.023663128863674
  25    -0.010235902815024
  26     0.017376270799586
  27     0.011452358829905
  28     0.025993624091462
  29    -0.051006695245595
  30    -0.046713436935585
  31    -0.0019299689618773
  32    -0.0030285557911622
  33    0.00068867115927162
  34    -0.00076976933932361
  35    -0.00020478361200272
  36    0.0097207579426043
  37    -0.0033585024369196
  38    0.0019098328766754
  39    -0.0013895536172927
  40    -0.0049353569742484
  41    0.0018605387192952
  42    0.0005666896640638
  43    -0.00058799138789373
  44    -0.00022147380712061
  45    0.00031318670865507
  46    0.00032683456600431
  47    0.00031378322200691
  48    0.0015776158398459
  49    -0.0049839510416478
  50    -0.018461294939222
  51      0.54222079455497
  52     0.022576630444847
  53      0.39117693021317
  54      0.37723930678077
  55     0.017387858188356
  56       0.2694932607557
  57    0.0070666026326125
  58    0.0025391972673215
  59    -0.0063137096030122
  60    -0.0036568322268264
  61    -0.0094417068575791
  62    0.0011440288560909
  63    -0.0023716451050116
  64    -0.021546448780821
  65    -0.0082997980167586
  66    -0.0093988161063772
  67    0.0041113205750648
  68    -0.0065011904209037
  69    -0.012169377194311
  70    0.0048744519357628
  71    -3.8626374712839e-05
  72    -0.0002382690121044
  73    -3.2871067941168e-05
  74    0.00067857792528332
  75    0.00061587959173909
  76    0.0096293311484308
  77    -0.030359977796394
  78    -0.0028566757241403
  79    -0.00058072302462064
  80    0.0010873807782597
  81    -0.00021744523050666
  82     -0.00148216890049
  83    -0.0013106643863771
  84    -0.002490204189905
  85    0.0025860236978625
  86    0.0023258865817058
  87    -0.0038187157154041
  88    0.0053862629724723
  89    0.0021012266768221
  90    6.4694370935241e-05
  91    -0.00041832726481627
  92    -9.1881371765249e-05
  93    0.00032596532804589
  94    -0.0003440937084613
 Sym= A
 Ene=               8
 Spin= Alpha
 Occup=    1.00000
   1    -0.0028038412495188
   2    -0.0033883671750174
   3     0.011342618859684
   4    0.00048717117343651
   5    -0.0018001317494425
   6    -0.00098848657234278
   7     0.030191663963119
   8    -0.022111942429122
   9    0.0027702700714412
  10     0.030345824189547
  11     0.018507630073145
  12    0.0038182160313407
  13    -0.0075929819993126
  14     0.020924761442208
  15    -0.0014386542399291
  16    -0.033013097374075
  17     -0.08494901949464
  18     0.042562891855243
  19    0.0019796442394462
  20    -0.010498535804616
  21     0.018837127044555
  22     0.022150725106132
  23    -0.0026913139484951
  24    0.00063098809892202
  25    0.0012205228846619
  26    0.0018490860411662
  27    -0.0011974388090272
  28    0.00020522263451942
  29    -0.009628735377392
  30     0.030360597152805
  31    -0.0028567263355639
  32    0.00017378523599795
  33     0.001220347738134