[Molden Format]
made by pyscf v[2.0.1]
[Atoms] (AU)
C   1   6     0.00000000000000     0.00000000000000     0.00000000000000
C   2   6     2.85272299873892     0.00000000000000     0.00000000000000
H   3   1     3.62066923017674     0.00000000000000     1.90331545357504
F   4   9     3.65943188126013    -2.04308229183900    -1.24074875274501
F   5   9     3.65943188126013     2.04308229183900    -1.24074875274501
F   6   9    -0.80670888252121    -2.09606108551054    -1.14898679038220
H   7   1    -0.76794623143782     1.64831953421149    -0.95165772678752
F   8   9    -0.80670888252121    -0.05297879367154     2.38973554312721
[GTO]
1 0
 s    8 1.00
                  6665  0.00069158396281299
                  1000  0.0053257961529341
                   228   0.027060721042034
                 64.71    0.10165684614077
                 21.06     0.2745748236174
                 7.495    0.44829431892377
                 2.797    0.28490261071525
                0.5215   0.015194859206082
 s    8 1.00
                  6665  -0.00029326965268655
                  1000  -0.0023180354739745
                   228  -0.011499786038565
                 64.71  -0.046826727009787
                 21.06   -0.12846616875047
                 7.495   -0.30126627246289
                 2.797   -0.25563070233011
                0.5215      1.093793361012
 s    1 1.00
                0.1596                   1
 p    3 1.00
                 9.439   0.056979251590039
                 2.002    0.31320721150073
                0.5456    0.76037674173753
 p    1 1.00
                0.1517                   1
 d    1 1.00
                  0.55                   1

2 0
 s    8 1.00
                  6665  0.00069158396281299
                  1000  0.0053257961529341
                   228   0.027060721042034
                 64.71    0.10165684614077
                 21.06     0.2745748236174
                 7.495    0.44829431892377
                 2.797    0.28490261071525
                0.5215   0.015194859206082
 s    8 1.00
                  6665  -0.00029326965268655
                  1000  -0.0023180354739745
                   228  -0.011499786038565
                 64.71  -0.046826727009787
                 21.06   -0.12846616875047
                 7.495   -0.30126627246289
                 2.797   -0.25563070233011
                0.5215      1.093793361012
 s    1 1.00
                0.1596                   1
 p    3 1.00
                 9.439   0.056979251590039
                 2.002    0.31320721150073
                0.5456    0.76037674173753
 p    1 1.00
                0.1517                   1
 d    1 1.00
                  0.55                   1

3 0
 s    3 1.00
                 13.01   0.033498726389998
                 1.962    0.23480080117413
                0.4446     0.8136829578829
 s    1 1.00
                 0.122                   1
 p    1 1.00
                 0.727                   1

4 0
 s    8 1.00
                 14710  0.00072067370873197
                  2207  0.0055504869689163
                 502.8   0.028254207662589
                 142.6    0.10639582836653
                 46.47    0.28668420124307
                  16.7    0.44843796582416
                 6.356    0.26464118141135
                 1.316   0.015326060993048
 s    8 1.00
                 14710  -0.00032119389049893
                  2207  -0.0025461915683188
                 502.8  -0.012643359507821
                 142.6   -0.05195749170489
                 46.47   -0.14344713812646
                  16.7   -0.33243762329603
                 6.356   -0.21865906750347
                 1.316     1.0955904138622
 s    1 1.00
                0.3897                   1
 p    3 1.00
                 22.67   0.064834021493887
                 4.977    0.34053535983101
                 1.347    0.73464640679382
 p    1 1.00
                0.3471                   1
 d    1 1.00
                  1.64                   1

5 0
 s    8 1.00
                 14710  0.00072067370873197
                  2207  0.0055504869689163
                 502.8   0.028254207662589
                 142.6    0.10639582836653
                 46.47    0.28668420124307
                  16.7    0.44843796582416
                 6.356    0.26464118141135
                 1.316   0.015326060993048
 s    8 1.00
                 14710  -0.00032119389049893
                  2207  -0.0025461915683188
                 502.8  -0.012643359507821
                 142.6   -0.05195749170489
                 46.47   -0.14344713812646
                  16.7   -0.33243762329603
                 6.356   -0.21865906750347
                 1.316     1.0955904138622
 s    1 1.00
                0.3897                   1
 p    3 1.00
                 22.67   0.064834021493887
                 4.977    0.34053535983101
                 1.347    0.73464640679382
 p    1 1.00
                0.3471                   1
 d    1 1.00
                  1.64                   1

6 0
 s    8 1.00
                 14710  0.00072067370873197
                  2207  0.0055504869689163
                 502.8   0.028254207662589
                 142.6    0.10639582836653
                 46.47    0.28668420124307
                  16.7    0.44843796582416
                 6.356    0.26464118141135
                 1.316   0.015326060993048
 s    8 1.00
                 14710  -0.00032119389049893
                  2207  -0.0025461915683188
                 502.8  -0.012643359507821
                 142.6   -0.05195749170489
                 46.47   -0.14344713812646
                  16.7   -0.33243762329603
                 6.356   -0.21865906750347
                 1.316     1.0955904138622
 s    1 1.00
                0.3897                   1
 p    3 1.00
                 22.67   0.064834021493887
                 4.977    0.34053535983101
                 1.347    0.73464640679382
 p    1 1.00
                0.3471                   1
 d    1 1.00
                  1.64                   1

7 0
 s    3 1.00
                 13.01   0.033498726389998
                 1.962    0.23480080117413
                0.4446     0.8136829578829
 s    1 1.00
                 0.122                   1
 p    1 1.00
                 0.727                   1

8 0
 s    8 1.00
                 14710  0.00072067370873197
                  2207  0.0055504869689163
                 502.8   0.028254207662589
                 142.6    0.10639582836653
                 46.47    0.28668420124307
                  16.7    0.44843796582416
                 6.356    0.26464118141135
                 1.316   0.015326060993048
 s    8 1.00
                 14710  -0.00032119389049893
                  2207  -0.0025461915683188
                 502.8  -0.012643359507821
                 142.6   -0.05195749170489
                 46.47   -0.14344713812646
                  16.7   -0.33243762329603
                 6.356   -0.21865906750347
                 1.316     1.0955904138622
 s    1 1.00
                0.3897                   1
 p    3 1.00
                 22.67   0.064834021493887
                 4.977    0.34053535983101
                 1.347    0.73464640679382
 p    1 1.00
                0.3471                   1
 d    1 1.00
                  1.64                   1

[5d]
[7f]
[9g]

[MO]
 Sym= A
 Ene=               0
 Spin= Alpha
 Occup=    1.00000
   1    -0.00023105086042523
   2    3.5283456858929e-05
   3    0.0032794487011596
   4    0.0004720826983077
   5    1.1478862871716e-05
   6    1.5199286874709e-05
   7    0.0016072219374336
   8    -0.00029273284529172
   9    0.00030896917628718
  10    -1.901253257994e-05
  11    0.00010910561862215
  12    1.9010480243717e-05
  13    7.9666087405002e-05
  14    1.4291234158328e-05
  15       1.0019144561873
  16    0.0042353571024937
  17    -0.0074812596460444
  18    0.00056510032598136
  19    5.5204475110178e-05
  20    -0.0011149302872276
  21    0.0015851770409471
  22    0.00010912683358842
  23    -0.00068213350667472
  24    -8.1840264235246e-05
  25    -0.00011380197463755
  26    -8.7744340418452e-06
  27    -0.0003325145451635
  28    -3.4163391805778e-06
  29    0.00095766829511605
  30    0.0015479014137028
  31    -0.00021927041319731
  32    -1.1478599967541e-05
  33    -7.2779361042565e-05
  34    0.00014278930815468
  35    0.00065048140840081
  36    -5.9453652347065e-05
  37    -8.1698830204949e-05
  38    0.00030603876597623
  39    0.00014345961992349
  40    0.00015495493366043
  41    -0.00074882027897115
  42    -0.00039352319749926
  43    4.2303602305511e-05
  44    2.9731291795519e-05
  45    -0.00011078655316048
  46    8.1955053046864e-05
  47    6.9022520076612e-05
  48    0.00016090627433303
  49    0.00068704721885641
  50    -0.00018161062577847
  51    -7.3876549615678e-05
  52    -0.00030094992180805
  53    0.00014489765183521
  54    0.00014955913211549
  55    0.00076799375337855
  56    -0.00042996042219185
  57    4.092574825248e-05
  58    3.1719634351575e-05
  59    0.00011789778449668
  60    8.6544637655358e-05
  61    -7.3400998075099e-05
  62    -7.3613310260828e-06
  63    -4.5808020941187e-07
  64    -0.00014856335936698
  65    2.2122144359502e-05
  66    4.841272764625e-06
  67    1.3757462484158e-05
  68    7.6565258972345e-05
  69    -4.4602170421264e-05
  70    -8.2675729714417e-05
  71    -1.9866159881482e-05
  72    8.1045131753713e-06
  73    4.1926421525759e-06
  74    2.9782910944907e-05
  75    1.5676796913992e-05
  76    -3.0431729553629e-05
  77    0.00041363204370325
  78    9.7041785245886e-05
  79    -3.4343718442679e-05
  80    2.382493188552e-05
  81    1.441914029429e-05
  82    3.1264518758507e-05
  83    -0.00028028139797639
  84    -2.9335625390649e-06
  85    -9.5486838400708e-06
  86    7.1083039020972e-06
  87    -5.9264624809646e-06
  88    3.5637975093712e-05
  89    2.7257307024152e-05
  90    2.9468486705653e-06
  91    -1.0480126020673e-05
  92    -3.8425861904315e-06
  93    2.6724682463021e-05
  94    1.7596044492506e-06
 Sym= A
 Ene=               1
 Spin= Alpha
 Occup=    1.00000
   1       1.0019144561554
   2    0.0042353599834221
   3    -0.0074812818894266
   4    -0.00056516484811145
   5    -0.00093797119522077
   6    0.00060528885734155
   7    -0.0015851973906888
   8    -0.00053618262323504
   9    0.00043557373653592
  10    0.00023278916833929
  11    -5.3944877019762e-05
  12    0.00020097640830301
  13    -0.0001508699106233
  14    0.00010026703901447
  15    -0.00023105074947147
  16    3.525663664742e-05
  17    0.0032794390381595
  18    -0.00047203706886636
  19    1.8899116667395e-05
  20    2.3462120230843e-06
  21    -0.0016072115691135
  22    0.00012120678458165
  23    -0.00040799562855728
  24    -6.3624132268079e-05
  25    4.2175569849817e-05
  26    -1.0731451862896e-05
  27    5.3905119206243e-05
  28    -0.00010163283202531
  29    -3.0425207955888e-05
  30    0.0004136379313085
  31    -9.7040764086913e-05
  32    3.461139180414e-06
  33    -4.1655187471767e-05
  34    -7.3611516249176e-06
  35    -4.5735190001803e-07
  36    -0.00014856144788453
  37    -2.2135190601036e-05
  38    1.4335508980962e-05
  39    -2.6842876695909e-06
  40    -7.6577136451573e-05
  41    -9.3899740270657e-05
  42    2.7119746046401e-06
  43    -2.000557953872e-05
  44    -9.5241158853305e-06
  45    4.0996611786431e-06
  46    2.9702137848196e-05
  47    -1.4856815499521e-05
  48    1.4418852932428e-05
  49    3.1262086305929e-05
  50    -0.00028028120976388
  51    2.930835121347e-06
  52    1.3798759811532e-06
  53    -1.1824409193687e-05
  54    5.9215345228359e-06
  55    4.1422972027009e-05
  56    1.7233952909311e-05
  57    -1.4844419139464e-05
  58    -6.7635794048176e-06
  59    -1.5703490685989e-05
  60    1.6452595728366e-05
  61    8.1957272956364e-06
  62    0.00014278797515922
  63    0.00065049621193916
  64    -5.9436941825778e-05
  65    8.1688344165836e-05
  66    0.00027728056761015
  67    0.00019334257936733
  68    -0.00015495886036305
  69    -0.00071519798409626
  70    -0.00045171272531804
  71    2.457095654846e-05
  72    -4.4909525860852e-05
  73    -0.00012260692903192
  74    7.1715775470903e-05
  75    -6.0259670952814e-05
  76    0.00095767513024247
  77    0.0015479066096653
  78    0.00021926935260707
  79    -6.8769213582672e-05
  80    2.6449797742696e-05
  81    0.00016090776268026
  82    0.00068707022729737
  83    -0.00018158624580773
  84    7.3871917289205e-05
  85    -2.5000490944264e-05
  86    -0.00033312173028829
  87    -0.00014955981412931
  88    1.1633267041531e-05
  89    0.00088005528311918
  90    -0.00014974926284092
  91    7.9426871248961e-05
  92    -9.2200295364235e-06
  93    -2.3543114704743e-05
  94    9.230344838825e-06
 Sym= A
 Ene=               2
 Spin= Alpha
 Occup=    1.00000
   1    -0.00020168263053051
   2    0.00026958637595364
   3    0.0038805137956333
   4    -0.0004000974925973
   5     -0.00086498949561
   6    -0.00045844473061828
   7    0.00029687816110252
   8    -0.0015660666977602
   9    -0.00048788421189826
  10    -1.9237425670333e-05
  11    2.1327367175124e-05
  12    9.1288381377794e-05
  13    -4.9506947574124e-05
  14    7.4317270063489e-05
  15    7.9571250372213e-05
  16    0.00010177376597101
  17    -0.0017631155807303
  18    0.00011542750304704
  19    5.0520279875849e-06
  20    -4.3871065160131e-07
  21    0.00081197333093302
  22    0.00047042655715803
  23    0.00024838112810365
  24    -2.6806793007909e-08
  25    -4.6752621785396e-06
  26    5.5321447763505e-05
  27    -4.9046747414364e-05
  28    -3.5042099407696e-05
  29    0.00010999116222151
  30    -7.5498822922554e-05
  31    -2.9390086425295e-05
  32    -5.9478611995035e-05
  33    -1.7046814615707e-05
  34    -6.5315296854465e-05
  35    -0.00013103820371073
  36    0.00039110907485525
  37    2.9880293196899e-05
  38    -2.5869206243643e-05
  39    -1.8051862823741e-05
  40    -6.6482321670619e-05
  41    7.8212123450921e-05
  42    5.0124302132089e-05
  43    1.1100233228438e-05
  44    1.8273372579956e-06
  45    -7.3345228756266e-06
  46    -8.6825683120735e-06
  47    -8.2803291491465e-07
  48    -1.3815267964579e-05
  49    -1.941099115108e-05
  50    0.00013409135366006
  51    -3.3713715747444e-07
  52    -1.1672278073914e-05
  53     1.15385327368e-05
  54    -0.00011904362430636
  55    -7.0574579930853e-05
  56    -1.8446986899194e-05
  57    -9.2068634124845e-06
  58    -4.035267620271e-06
  59    1.3612308413125e-06
  60    -1.3127619679093e-05
  61    3.4694341239661e-06
  62       1.0010253213675
  63    0.00075729848906537
  64    -0.0058233575438073
  65    0.00069351453345489
  66    0.0020288606246832
  67    0.0010903212605421
  68    -0.00027458268546794
  69    -0.00047315297586809
  70    -0.00035855103748724
  71    1.2139201104613e-05
  72    -3.2890642750244e-05
  73    -8.094865646974e-05
  74    7.4575022069598e-05
  75    -6.819505362046e-05
  76    -0.00025526828032341
  77    -8.351770766166e-05
  78    3.9266281639959e-06
  79    0.00015366349857595
  80    6.2299327771756e-05
  81    0.00010281139660072
  82    0.00017216685584673
  83    -0.00073792343069336
  84    -1.2497375783189e-06
  85    -1.688602894855e-05
  86    5.3230216442085e-05
  87    -5.2885693719618e-05
  88    0.00032739567978377
  89    0.00030602932638193
  90    -1.6487937566297e-05
  91    5.2957737637464e-06
  92    -1.9099900448736e-05
  93    -2.0888400767748e-06
  94    1.6061563384022e-05
 Sym= A
 Ene=               3
 Spin= Alpha
 Occup=    1.00000
   1    7.9573496472406e-05
   2    0.00010177472086222
   3    -0.0017631727010273
   4    -0.00011543489306492
   5    2.1266838908404e-06
   6    4.5849034150121e-06
   7    -0.0008119974509984
   8    0.00045030586154742
   9    0.00028319005357915
  10    -9.6325338966577e-06
  11    2.8002145012014e-05
  12    4.891700928065e-05
  13    -5.4588695042827e-05
  14    2.1558398012195e-05
  15    -0.00020165430352536
  16    0.00026978944616611
  17    0.0038805783607783
  18    0.00040017030207829
  19    -0.00082975339445738
  20    -0.00052000264623342
  21    -0.00029689646592315
  22    -0.0012055643375855
  23    -0.0011122912358814
  24    -3.3896559998152e-05
  25    -5.3694580225229e-05
  26    8.1530849115651e-05
  27    -5.7979289821658e-05
  28    -5.5626913346877e-05
  29    -0.00025523891867197
  30    -8.3548476605584e-05
  31    -3.9212701077528e-06
  32    0.00013077542097784
  33    0.00010192173745305
  34        1.001025321338
  35    0.00075607538621135
  36    -0.0058247961934247
  37    -0.00069398002345156
  38    0.0019593849019393
  39    0.0012121647563827
  40    0.00027426751389435
  41    -0.00054661537934423
  42    -0.0002303053035938
  43    1.0750778811237e-05
  44    4.260580157884e-05
  45    -8.1856599027496e-05
  46    7.3766811786637e-05
  47    6.2567884775422e-05
  48    0.00010281061029241
  49    0.00017214313367884
  50    -0.00073794168292803
  51    1.2674143742321e-06
  52    3.7683076801424e-05
  53    -4.1263720708344e-05
  54    5.2897668934834e-05
  55    0.00042874759795388
  56    0.00013050262114294
  57    1.7740396980483e-05
  58    -1.1260048940508e-05
  59    3.7210239069516e-06
  60    1.7671295037678e-05
  61    -1.2617188807082e-05
  62    -6.5314395061783e-05
  63    -0.00013103328853683
  64     0.000391106378715
  65    -2.9870393918893e-05
  66    -2.8577105425825e-05
  67    -1.3379847125259e-05
  68    6.6484151882024e-05
  69    8.2513485198901e-05
  70    4.2674530188936e-05
  71    9.7527930390435e-06
  72    1.6310568185436e-06
  73    -8.2324672007675e-06
  74    -9.4607270414246e-06
  75    -1.1677641307273e-06
  76    0.00010999187690692
  77    -7.5486625857361e-05
  78    2.9387788758992e-05
  79    -4.4500927419976e-05
  80    -4.2986560133072e-05
  81    -1.3816102037997e-05
  82    -1.9409350011402e-05
  83    0.00013410886142529
  84    3.3939912155213e-07
  85    4.1550464279222e-06
  86    -1.5882260141041e-05
  87    0.00011904787784453
  88    -5.1262546293507e-05
  89    -5.1901385649809e-05
  90    8.6566965303745e-06
  91    -5.0217322696131e-06
  92    1.3270430957373e-05
  93    -2.8145106330117e-06
  94    1.7596381131871e-06
 Sym= A
 Ene=               4
 Spin= Alpha
 Occup=    1.00000
   1    8.9655322037873e-05
   2    0.00012885217078209
   3    -0.0016516577705403
   4    -0.00014108370385103
   5    3.6035913580971e-05
   6    -2.5420398840875e-05
   7    -0.00066134652950992
   8    -0.00026552677477967
   9    0.00031416846634914
  10    -1.1520652607015e-05
  11    3.4447570339306e-05
  12    -7.3934924248884e-05
  13    -6.958014091887e-05
  14    -3.4269850776167e-05
  15    -0.00018810734455636
  16    0.00026953513764394
  17    0.0036275227356198
  18    0.0003868058580231
  19    0.00079322403141027
  20    -0.00049488935809309
  21    -0.00021150089689161
  22    0.0011516248844685
  23    -0.0010987558533111
  24    -2.885101782175e-05
  25    -4.8421891871309e-05
  26    -8.9053403189663e-05
  27    -6.5130604573596e-05
  28    6.1961612645476e-05
  29    -0.00023517327091216
  30    -8.0665984516617e-05
  31    -5.4852719299723e-06
  32    -0.00012795055556683
  33    0.00010271212807629
  34    0.00010064195731582
  35    0.00016940023056705
  36    -0.00071475309339843
  37    9.7139270351185e-07
  38    -3.4102528054324e-05
  39    -4.0999298221053e-05
  40    4.5244677855256e-05
  41    -0.00041270911149652
  42    0.00013623339652835
  43    1.7939841064222e-05
  44    -1.1887715624142e-05
  45    -3.000076983591e-06
  46    1.6471666375859e-05
  47    1.1940263210038e-05
  48       1.0010222376249
  49    0.00091332784076665
  50    -0.0055985433199728
  51    -0.00073612818772233
  52    -0.0018414974736166
  53    0.0011149266941636
  54    0.00026371632838356
  55    0.00057776509930231
  56    -0.00027774918049662
  57    1.1724403176589e-05
  58    4.1256621261107e-05
  59    8.4240961192001e-05
  60    7.4230378648791e-05
  61    -5.8362908437845e-05
  62    -1.4250185879302e-05
  63    -2.2073163668569e-05
  64    0.00016027135612448
  65    1.0476776163999e-05
  66    8.104671340713e-06
  67    6.3299926486506e-06
  68    5.1276613636678e-05
  69    7.0812205989809e-05
  70     5.32713296764e-07
  71    -6.8710235940862e-06
  72    3.1531514527494e-06
  73    -4.6044830400927e-06
  74    -1.5506650641089e-05
  75    2.3702251673744e-07
  76    8.0117296207921e-05
  77    0.00012213429297565
  78    -3.2440931537066e-05
  79    -2.7604615399452e-07
  80    -1.6673950503637e-05
  81    -9.3467825278906e-06
  82    -1.10835459102e-05
  83    0.00010287352737704
  84    1.7124847765626e-06
  85    5.0682212494628e-06
  86    -1.4816646545321e-05
  87    0.00010352570884092
  88    7.5984155097544e-06
  89    -4.937499665425e-05
  90    9.001276582089e-06
  91    -2.3880605457127e-06
  92    -1.1700994746757e-05
  93    -2.1478916082014e-06
  94    -1.7340390241649e-06
 Sym= A
 Ene=               5
 Spin= Alpha
 Occup=    1.00000
   1    -0.00018814673603878
   2    0.00026927384397609
   3    0.0036274599139695
   4    -0.00038666621128832
   5    -3.1961761655955e-05
   6    0.00093400038010852
   7    0.00021153747949378
   8    -0.00037575778845361
   9    0.0015467331636967
  10    0.00011268974245776
  11    -7.779961547913e-05
  12    5.3202205221765e-06
  13    1.6556196327826e-05
  14    1.0961933216504e-05
  15    8.9653573257494e-05
  16    0.00012881068061525
  17    -0.0016517845980175
  18    0.00014113138345612
  19    -3.9970658078515e-06
  20      4.3911453092e-05
  21    0.00066131294496716
  22    0.00013932833013062
  23    -0.00038708727681014
  24    0.00010208960423148
  25    4.6923758101568e-05
  26    1.802037689713e-06
  27    -3.9875909783206e-06
  28    -1.2700143958409e-05
  29    8.0123993091779e-05
  30    0.00012226659329391
  31    3.2430669938696e-05
  32    -1.4578690899257e-05
  33    8.1007520419183e-06
  34    -1.425086080512e-05
  35    -2.2076676308089e-05
  36    0.00016028422513426
  37    -1.0472342814549e-05
  38    9.5244131892779e-06
  39    3.8608998960325e-06
  40    -5.1267129098231e-05
  41    3.5868949609934e-05
  42    6.1073608141048e-05
  43    1.4384432649138e-05
  44    1.3715263059009e-06
  45    9.5658814520489e-06
  46    -3.2355507761785e-06
  47    -2.8485332264325e-06
  48    -9.3470309371526e-06
  49    -1.1095309856954e-05
  50    0.00010286601676754
  51    -1.6805910317472e-06
  52    -1.0289086452063e-05
  53    1.1802918199954e-05
  54    -0.00010349870854746
  55    -3.8964922385072e-05
  56    3.1277842114686e-05
  57    9.0457893507052e-06
  58    3.0837926224451e-07
  59    -1.1671634820112e-05
  60    -2.1224916999423e-06
  61    2.9339415332938e-06
  62    0.00010064259167766
  63    0.00016944439813106
  64    -0.00071471182241282
  65    -1.0200345800732e-06
  66    -5.2511477960215e-05
  67    -8.8330389177381e-06
  68    -4.5287381174496e-05
  69    -8.8341661526717e-05
  70    -0.00042538583913194
  71    -1.0692379277354e-05
  72    -1.6283476671076e-05
  73    -2.2088793555108e-05
  74    -5.9362355506864e-08
  75    4.3257483126644e-06
  76    -0.00023510549556017
  77    -8.0549030362196e-05
  78    5.4904080550287e-06
  79    2.4975020609088e-05
  80    -0.00016217609988856
  81       1.0010222364626
  82    0.00091469213336834
  83    -0.0055969140147188
  84    0.00073671721090637
  85    4.4795929978636e-05
  86    -0.0021507973643438
  87    -0.00026329184881046
  88    4.834139129407e-05
  89    0.00064020711056987
  90    -0.00011290046081943
  91    7.1173892597787e-05
  92    1.1858875017356e-06
  93    2.305321479799e-06
  94    -6.5472678882889e-06
 Sym= A
 Ene=               6
 Spin= Alpha
 Occup=    1.00000
   1    -0.00089999407738397
   2    -0.015659204197295
   3    -0.027801273907506
   4     0.015000763831543
   5     0.031214117331671
   6     0.015982360481401
   7     0.008853351876184
   8     0.042235586749007
   9     0.022363077037246
  10    0.0098301794812177
  11      0.01553657091143
  12     0.035896427090465
  13    -0.0085036949882667
  14    -0.0073041232536353
  15    -0.0016003769126209
  16    -0.018131744063094
  17    -0.021090645798226
  18     0.017453164475641
  19    0.0005632278005882
  20    -0.0055634757284598
  21    -0.0049246003458492
  22    0.0034950973813913
  23    -0.0050844392960996
  24    0.0002676279427767
  25    1.4568070592663e-05
  26    0.0004406163343752
  27    -0.00032564571510041
  28    -0.00046815472516654
  29    -0.0090168651585378
  30     0.012862358305423
  31    -0.0017645597626946
  32    0.00088149137707262
  33    0.0015725324145057
  34    -0.00097392346067629
  35    0.0012163000141435
  36     0.012718085558112
  37    -0.0053819441456349
  38     0.005559055543547
  39    0.0047406073814919
  40    -0.0076218356881028
  41    0.0060032984932834
  42    0.0051486428246203
  43    -0.00011275312249731
  44    -1.8916235444129e-05
  45    0.00016711376449707
  46    -0.00020913984142897
  47     3.13858003725e-05
  48    0.00088379700703844
  49    0.0032315156266174
  50    0.00010886126460991
  51    -0.0030821634417709
  52    -0.0029400540698565
  53    -0.00021224714668477
  54    0.0013419734781416
  55    -0.0032995327348741
  56    -0.00051014086076342
  57    7.1391413188533e-05
  58    0.00015786690471996
  59      5.0210957468e-05
  60    -0.00041674483352938
  61    -0.00037168557904838
  62    -0.0019086263579291
  63      0.01355956565024
  64     0.051740863919507
  65    0.0062268280934176
  66      0.03228868033225
  67      0.03323942899271
  68    0.0069270034499211
  69     0.030017866367819
  70     0.031399220338043
  71    -0.00041805701938087
  72    0.00066606243858823
  73    0.0005381510895239
  74    4.4427123210931e-05
  75    -0.00026807024693976
  76    -0.025195678467629
  77    -0.018902423650985
  78    0.00061184685381765
  79    -0.00075413851177741
  80    -0.0013534307490206
  81    -0.0005236589586993
  82    -0.00048377148137038
  83    0.0020176876387102
  84      0.29952231410086
  85      0.57998532220531
  86      0.11568003485522
  87      0.20871285803684
  88      0.40136669943957
  89     0.078407872849309
  90    -0.0045843685170658
  91    -0.0053931519744989
  92    -0.011902532327781
  93     0.001790787994314
  94    0.0053331543278765
 Sym= A
 Ene=               7
 Spin= Alpha
 Occup=    1.00000
   1    0.00089117412796719
   2     0.026784399955984
   3     0.083603426158733
   4     0.048376819014195
   5    -0.0041393357878668
   6    -0.0014171709440694
   7     0.053104046785811
   8     0.015001080036795
   9    0.0070917631235012
  10    -0.00061878851829788
  11    -0.0014402832705088
  12    -0.00070122699398533
  13    0.00088170564493584
  14    -0.0020523495991972
  15    0.0030361128387376
  16    0.00024686973765256
  17     -0.03870911007887
  18    0.0026000607496963
  19    0.0017028948191466
  20    0.0025642197120593
  21     0.047815464786512
  22    -0.019684391212788
  23    0.0086495010887652
  24    -0.023843138981763
  25    -0.010807381209482
  26    -0.017656576523047
  27     0.011587148826546
  28    -0.027243786339165
  29    -0.050768933898639
  30    -0.049511367733126
  31    -0.0020154736728567
  32    0.0031488260897427
  33    0.00066480955797633
  34    0.00092297893896053
  35    0.0075706990099196
  36    -0.001136189989941
  37        0.551626541708
  38    -0.024428795651091
  39      0.37926180615055
  40      0.38094326565309
  41    -0.019546464260308
  42      0.26121787295393
  43    0.0068909264599938
  44    0.0031074154823505
  45    0.0061685137639555
  46    -0.0032203932234621
  47    0.0099866965345783
  48    -0.00094890556097467
  49    -0.00043072170412607
  50     0.011370334481111
  51    -0.0037764340815675
  52    -0.0021920439418157
  53    -0.0015862462731536
  54    -0.0077865115978561
  55    -0.0019296519975131
  56    0.0012584777089461
  57    -0.00054288814814052
  58    -0.00027968420390247
  59    -0.00034118485988464
  60    0.00033123630536004
  61    -0.00035016032634516
  62    0.00076707046053361
  63    0.0063844525015359
  64    0.0079904681000384
  65     0.011792222636889
  66    0.0013238652766576
  67    -0.0037439740066579
  68    0.00045558919102629
  69    0.0032809432909895
  70    0.00046320877720195
  71    0.00057716658506676
  72    0.00099438912838031
  73    0.00031604165915072
  74    -0.0014640169474048
  75    0.0010296599670899
  76    -0.0088401156737645
  77    -0.012829950061341
  78    0.0024082630191313
  79    -5.8725495068908e-05
  80    -0.0014834315853964
  81    0.00058465315236624
  82    -0.000652337697639
  83    -0.0080944226894855
  84    -0.0051744989619256
  85    -0.00010786317520599
  86     0.005186920655427
  87    -0.0093795202947289
  88    -0.0028141135080071
  89      0.00606806489661
  90    -0.00039276120715607
  91    -0.00065744802703353
  92    0.00018562470140446
  93    0.00016572075198229
  94    -1.2625721519602e-05
 Sym= A
 Ene=               8
 Spin= Alpha
 Occup=    1.00000
   1    0.0012256025352815
   2     0.034233831754401
   3     0.089450645283849
   4     0.042659203141656
   5    0.0090511124057258
   6    -0.0060866358375921
   7      0.01997562950974
   8    -0.0038480865268952
   9    0.0056869782227189
  10    -0.00045287387908606
  11    -0.0014222551426914
  12    0.00076900687790419
  13    0.0013203861633101
  14    0.00069652857835348
  15    0.0030236631394192
  16    0.0039519624943323
  17    -0.013109692824487
  18    0.0010066187820178
  19    0.00096193573640466
  20    -0.001080509927987
  21     0.033470671716105
  22     0.015177078303128
  23    0.0083190422816227
  24    -0.022776217917995
  25    -0.010618106799385
  26     0.016759481110496
  27     0.012392702217827
  28     0.026456412356929
  29    -0.050731371720708
  30    -0.048153267097455
  31    -0.0016825437375318
  32    -0.0028230419785266