[Molden Format]
made by pyscf v[2.0.1]
[Atoms] (AU)
C   1   6     0.00000000000000     0.00000000000000     0.00000000000000
C   2   6     2.85272299873892     0.00000000000000     0.00000000000000
H   3   1     3.62066923017674     0.00000000000000     1.90331545357504
F   4   9     3.65943188126013    -2.04308229183900    -1.24074875274501
F   5   9     3.65943188126013     2.04308229183900    -1.24074875274501
F   6   9    -0.80670888252121    -1.24074875274501    -2.04308229183900
H   7   1    -0.76794623143782     1.90331545357504     0.00000000000000
F   8   9    -0.80670888252121    -1.24074875274501     2.04308229183900
[GTO]
1 0
 s    8 1.00
                  6665  0.00069158396281299
                  1000  0.0053257961529341
                   228   0.027060721042034
                 64.71    0.10165684614077
                 21.06     0.2745748236174
                 7.495    0.44829431892377
                 2.797    0.28490261071525
                0.5215   0.015194859206082
 s    8 1.00
                  6665  -0.00029326965268655
                  1000  -0.0023180354739745
                   228  -0.011499786038565
                 64.71  -0.046826727009787
                 21.06   -0.12846616875047
                 7.495   -0.30126627246289
                 2.797   -0.25563070233011
                0.5215      1.093793361012
 s    1 1.00
                0.1596                   1
 p    3 1.00
                 9.439   0.056979251590039
                 2.002    0.31320721150073
                0.5456    0.76037674173753
 p    1 1.00
                0.1517                   1
 d    1 1.00
                  0.55                   1

2 0
 s    8 1.00
                  6665  0.00069158396281299
                  1000  0.0053257961529341
                   228   0.027060721042034
                 64.71    0.10165684614077
                 21.06     0.2745748236174
                 7.495    0.44829431892377
                 2.797    0.28490261071525
                0.5215   0.015194859206082
 s    8 1.00
                  6665  -0.00029326965268655
                  1000  -0.0023180354739745
                   228  -0.011499786038565
                 64.71  -0.046826727009787
                 21.06   -0.12846616875047
                 7.495   -0.30126627246289
                 2.797   -0.25563070233011
                0.5215      1.093793361012
 s    1 1.00
                0.1596                   1
 p    3 1.00
                 9.439   0.056979251590039
                 2.002    0.31320721150073
                0.5456    0.76037674173753
 p    1 1.00
                0.1517                   1
 d    1 1.00
                  0.55                   1

3 0
 s    3 1.00
                 13.01   0.033498726389998
                 1.962    0.23480080117413
                0.4446     0.8136829578829
 s    1 1.00
                 0.122                   1
 p    1 1.00
                 0.727                   1

4 0
 s    8 1.00
                 14710  0.00072067370873197
                  2207  0.0055504869689163
                 502.8   0.028254207662589
                 142.6    0.10639582836653
                 46.47    0.28668420124307
                  16.7    0.44843796582416
                 6.356    0.26464118141135
                 1.316   0.015326060993048
 s    8 1.00
                 14710  -0.00032119389049893
                  2207  -0.0025461915683188
                 502.8  -0.012643359507821
                 142.6   -0.05195749170489
                 46.47   -0.14344713812646
                  16.7   -0.33243762329603
                 6.356   -0.21865906750347
                 1.316     1.0955904138622
 s    1 1.00
                0.3897                   1
 p    3 1.00
                 22.67   0.064834021493887
                 4.977    0.34053535983101
                 1.347    0.73464640679382
 p    1 1.00
                0.3471                   1
 d    1 1.00
                  1.64                   1

5 0
 s    8 1.00
                 14710  0.00072067370873197
                  2207  0.0055504869689163
                 502.8   0.028254207662589
                 142.6    0.10639582836653
                 46.47    0.28668420124307
                  16.7    0.44843796582416
                 6.356    0.26464118141135
                 1.316   0.015326060993048
 s    8 1.00
                 14710  -0.00032119389049893
                  2207  -0.0025461915683188
                 502.8  -0.012643359507821
                 142.6   -0.05195749170489
                 46.47   -0.14344713812646
                  16.7   -0.33243762329603
                 6.356   -0.21865906750347
                 1.316     1.0955904138622
 s    1 1.00
                0.3897                   1
 p    3 1.00
                 22.67   0.064834021493887
                 4.977    0.34053535983101
                 1.347    0.73464640679382
 p    1 1.00
                0.3471                   1
 d    1 1.00
                  1.64                   1

6 0
 s    8 1.00
                 14710  0.00072067370873197
                  2207  0.0055504869689163
                 502.8   0.028254207662589
                 142.6    0.10639582836653
                 46.47    0.28668420124307
                  16.7    0.44843796582416
                 6.356    0.26464118141135
                 1.316   0.015326060993048
 s    8 1.00
                 14710  -0.00032119389049893
                  2207  -0.0025461915683188
                 502.8  -0.012643359507821
                 142.6   -0.05195749170489
                 46.47   -0.14344713812646
                  16.7   -0.33243762329603
                 6.356   -0.21865906750347
                 1.316     1.0955904138622
 s    1 1.00
                0.3897                   1
 p    3 1.00
                 22.67   0.064834021493887
                 4.977    0.34053535983101
                 1.347    0.73464640679382
 p    1 1.00
                0.3471                   1
 d    1 1.00
                  1.64                   1

7 0
 s    3 1.00
                 13.01   0.033498726389998
                 1.962    0.23480080117413
                0.4446     0.8136829578829
 s    1 1.00
                 0.122                   1
 p    1 1.00
                 0.727                   1

8 0
 s    8 1.00
                 14710  0.00072067370873197
                  2207  0.0055504869689163
                 502.8   0.028254207662589
                 142.6    0.10639582836653
                 46.47    0.28668420124307
                  16.7    0.44843796582416
                 6.356    0.26464118141135
                 1.316   0.015326060993048
 s    8 1.00
                 14710  -0.00032119389049893
                  2207  -0.0025461915683188
                 502.8  -0.012643359507821
                 142.6   -0.05195749170489
                 46.47   -0.14344713812646
                  16.7   -0.33243762329603
                 6.356   -0.21865906750347
                 1.316     1.0955904138622
 s    1 1.00
                0.3897                   1
 p    3 1.00
                 22.67   0.064834021493887
                 4.977    0.34053535983101
                 1.347    0.73464640679382
 p    1 1.00
                0.3471                   1
 d    1 1.00
                  1.64                   1

[5d]
[7f]
[9g]

[MO]
 Sym= A
 Ene=               0
 Spin= Alpha
 Occup=    1.00000
   1       1.0019134185552
   2    0.0042286166903892
   3    -0.0074609795877807
   4    -0.00058670123401841
   5    -0.001081352244402
   6    4.3524916449157e-05
   7    -0.0015849558335424
   8    -0.000592398335931
   9    0.00011957549452161
  10    0.00032514296385219
  11    7.5506732172323e-06
  12    -3.8313629523899e-06
  13    -0.00010011094440519
  14    0.0001154572451063
  15    -0.00023055757777426
  16    3.2263861227694e-05
  17    0.0032802433531225
  18    -0.00047932457808567
  19    1.8217339605623e-05
  20    -1.4221145013716e-06
  21    -0.0015975496481184
  22    9.9566367429675e-05
  23    -0.00035194285044341
  24    -8.014227726286e-05
  25    -2.3840479952528e-05
  26    8.4476072769145e-06
  27    5.246389101889e-05
  28    -0.00011452826670362
  29    -1.9849406199425e-05
  30    0.00039519850214272
  31    -9.7253852688344e-05
  32    -2.4685356148723e-07
  33    -6.2132771292679e-05
  34    -1.5454721778371e-06
  35    1.2228629730661e-05
  36    -0.00018183924406593
  37    -2.8597831060717e-05
  38    1.5881187314138e-05
  39    4.5653987582571e-07
  40    -7.4939875064382e-05
  41    -0.00010891865451168
  42    -1.0491996074598e-05
  43    -1.8274791354422e-05
  44    -9.274215439064e-06
  45    -1.553558066469e-07
  46    3.2922947164764e-05
  47    -1.5046199430494e-05
  48    6.3536107986082e-06
  49    1.8337456020316e-05
  50    -0.00023196154341652
  51    7.8149396409905e-07
  52    -2.7683196969206e-06
  53    -5.4872193007667e-06
  54    -2.5604311961926e-05
  55    3.2969274460973e-05
  56    -2.1450442187131e-05
  57    -1.5971050730377e-05
  58    -4.5151873496605e-06
  59    -1.5239296697615e-05
  60    1.938591629251e-05
  61    1.1294585160758e-05
  62    0.00014164518592712
  63    0.00064817989411567
  64    -4.4808283806385e-05
  65    8.4082079850333e-05
  66    0.00014591139642436
  67    0.00030527961836608
  68    -0.00016254231120799
  69    -0.00040093707722141
  70    -0.00074341551443533
  71    -9.172510671934e-05
  72     -6.8943555837e-05
  73    -0.00011215747242095
  74    4.1886964266231e-06
  75    -2.9413632624284e-05
  76    0.0009305861383374
  77     0.001514627301093
  78    0.00021830177881908
  79    -5.7965871452608e-05
  80    -1.0756865013988e-05
  81    0.00015463333075512
  82    0.00067500414414194
  83    -0.00014435959147598
  84    7.4366071857535e-05
  85    0.00014964549860597
  86    -0.00030084562680314
  87    -0.00013897166160337
  88    -0.00044297201399423
  89    0.00075137716757957
  90    -9.3252459745862e-05
  91    7.1571751561713e-05
  92    0.00011688803349679
  93    8.6698696876306e-06
  94    -3.1213691606727e-05
 Sym= A
 Ene=               1
 Spin= Alpha
 Occup=    1.00000
   1    -0.00023054943593423
   2    3.2275716207317e-05
   3    0.0032802488745969
   4    0.00047933366952835
   5    -1.4253766340028e-06
   6    1.8220085615291e-05
   7    0.0015975525621394
   8    -0.0003519468654521
   9    9.956720717495e-05
  10    -5.3668975131159e-06
  11    0.00011452777079192
  12    8.447620906469e-06
  13    9.5636903902582e-05
  14    2.3841053712945e-05
  15        1.001913418633
  16    0.0042286134311995
  17    -0.0074609774474419
  18    0.0005866807797791
  19    4.3520980898475e-05
  20    -0.001081352558088
  21    0.0015849507064892
  22    0.00011957836196812
  23    -0.00059239828215489
  24    -7.5873692110536e-05
  25    -0.00011545602295901
  26    -3.8290588737947e-06
  27    -0.00033163702178545
  28    -7.5492067006316e-06
  29    0.00093057802649213
  30    0.0015146230532005
  31    -0.00021830163929538
  32    -1.0757288986374e-05
  33    -5.7965001215096e-05
  34    0.00014166297063194
  35    0.00064817293808062
  36    -4.4814338875088e-05
  37    -8.4112350712577e-05
  38    0.00030527847011593
  39    0.00014589265628204
  40    0.00016252209833958
  41    -0.00074341568609019
  42    -0.00040094945465157
  43    4.2234654504619e-05
  44    2.9413350468913e-05
  45    -0.00011215797453389
  46    8.1531140853094e-05
  47    6.8942940314869e-05
  48    0.00015453567231384
  49    0.00067500696743544
  50    -0.000144355533085
  51    -7.4358021728848e-05
  52    -0.00030081973961841
  53    0.00014966071678457
  54    0.00013897786712347
  55    0.00075139432764591
  56    -0.00044296089238269
  57    3.9118342558657e-05
  58    3.1213600332515e-05
  59    0.00011688831711161
  60    8.5094536408461e-05
  61    -7.1571985513389e-05
  62    -1.5500808002973e-06
  63    1.222670237114e-05
  64    -0.00018184295472274
  65    2.8596599508098e-05
  66    4.3419381930121e-07
  67    1.5892877170006e-05
  68    7.4938393448266e-05
  69    -1.0507427067749e-05
  70    -0.00010891130783767
  71    -1.9374312248385e-05
  72    1.5046430326812e-05
  73    -1.5558657768884e-07
  74    3.2288269990956e-05
  75    9.2740787347059e-06
  76    -1.9845931813267e-05
  77    0.00039520056910829
  78    9.7253968014482e-05
  79    -6.2132999724772e-05
  80    -2.467734530754e-07
  81    6.3669011709825e-06
  82    1.8326101591982e-05
  83    -0.00023197786506004
  84    -7.8775354953693e-07
  85    -5.5002669363382e-06
  86    -2.787940688795e-06
  87    2.5598968655787e-05
  88    -2.145966401491e-05
  89    3.295659693602e-05
  90    -8.8026291129628e-06
  91    -1.1294803456602e-05
  92    -1.5239350523773e-05
  93    2.3524405577702e-05
  94    4.5151059695863e-06
 Sym= A
 Ene=               2
 Spin= Alpha
 Occup=    1.00000
   1    6.8268215443045e-05
   2    9.0770255037066e-05
   3    -0.0014554242957403
   4    -0.00014620181385229
   5    2.7838263624489e-05
   6    -2.20013162223e-05
   7    -0.00065047224985907
   8    -0.00018553349804244
   9    0.00021601385782108
  10    -9.8301946749788e-06
  11    1.5071700189025e-05
  12    -4.0315825303106e-05
  13    -8.6201246985059e-05
  14    -2.967181151978e-05
  15    -0.00018253759519669
  16    0.00029893861286911
  17    0.0035684051054942
  18    0.00040081695634807
  19    0.00082622650297742
  20    -0.00050986314859199
  21    -0.00019138466947384
  22    0.0011481828805167
  23    -0.0011257841033391
  24    -3.7635736014842e-05
  25    -6.5957264197319e-05
  26    -9.0717596518321e-05
  27    -6.5176542192826e-05
  28    6.9136794200081e-05
  29    -0.00021040805044608
  30    -6.5105802504163e-05
  31    -1.1730909654187e-05
  32    -0.00012791665393248
  33    9.4448271129159e-05
  34    9.7955892128125e-05
  35    0.00016347490786703
  36    -0.00071011305671735
  37    6.7329750923579e-06
  38    -3.5220753461463e-05
  39    -4.2658313462027e-05
  40    2.9504660453412e-05
  41    -0.00041838342182029
  42    0.00014270777731539
  43    1.8244478893689e-05
  44    -1.230258816506e-05
  45    -2.5294801635901e-06
  46    1.6916716453031e-05
  47    1.1545976727927e-05
  48       1.0010266857604
  49    0.00077823956952454
  50    -0.0057885476417254
  51    -0.00078426658338855
  52    -0.0019314125395379
  53    0.0011728601007128
  54    0.00024510497687375
  55    0.00053480561592694
  56    -0.00024267682599906
  57    1.414550211581e-05
  58    3.9900519804079e-05
  59    8.281697305262e-05
  60    7.2509096371782e-05
  61    -5.8525428339648e-05
  62    1.163674487026e-05
  63    2.6893994331684e-05
  64    7.2549423222369e-05
  65    3.3883211756215e-05
  66    6.2241445670363e-06
  67    2.1809845003382e-06
  68    -6.9014311659416e-05
  69    8.1775518418094e-06
  70    4.488016938835e-05
  71    6.8390563875709e-06
  72    2.6655952549636e-06
  73    3.1469320165411e-06
  74    -1.6973106248662e-05
  75    -8.3004723015659e-06
  76    4.8080377523408e-05
  77    5.4275328942863e-06
  78    -4.6941434824736e-05
  79    5.6657452756133e-06
  80    -3.2469092069432e-06
  81    -2.9899792395617e-05
  82    -5.2430051550043e-05
  83    0.00016182127407356
  84    -1.7281589400922e-05
  85    8.9188766870701e-06
  86    -7.9824142211623e-06
  87    0.00017250367870612
  88    2.6833940985554e-05
  89    -3.4536930402853e-05
  90    -5.7477398847475e-06
  91    1.8172572770361e-06
  92    -5.7371765025723e-06
  93    -3.5047307856405e-06
  94    4.5241632078192e-07
 Sym= A
 Ene=               3
 Spin= Alpha
 Occup=    1.00000
   1    -0.00017818381291598
   2    0.00033245281250631
   3    0.0035782862889309
   4    -0.00041556964283037
   5    -0.00053296244192696
   6    0.00086233892311418
   7    0.00019151451839489
   8    -0.0011232683160685
   9     0.001148554428277
  10    7.5171844039473e-05
  11    -7.162399823185e-05
  12    -9.3104427081435e-05
  13    4.6955605588026e-07
  14    6.7081316940143e-05
  15    6.844559624592e-05
  16    9.2948028546799e-05
  17    -0.0014528442271143
  18    0.00014495046838426
  19    -2.3565469447386e-05
  20    3.1541052418649e-05
  21    0.00065564074593817
  22    0.00021527507317566
  23    -0.00018055443735939
  24    7.9361171825088e-05
  25    2.8241891408111e-05
  26    -4.0347784664492e-05
  27    -3.4140341493962e-05
  28    -1.3738136255986e-05
  29    4.9657386727448e-05
  30    -2.7989028095958e-06
  31    4.725390460055e-05
  32    -3.1655418406601e-06
  33    5.6698065551278e-06
  34    1.1521246151228e-05
  35    2.6594408986693e-05
  36    7.3099046700796e-05
  37    -3.3805147161791e-05
  38    1.8914867378341e-06
  39    5.751662486608e-06
  40    6.7999332792733e-05
  41    4.484159356998e-05
  42    7.413221088872e-06
  43    1.1317453895255e-05
  44    8.2644569591173e-06
  45    3.1726291220835e-06
  46    -1.4391681924152e-05
  47    -2.6496476927576e-06
  48    -2.9734703252338e-05
  49    -5.1902589369255e-05
  50    0.00016221388293588
  51    1.6443211396917e-05
  52    -8.0564501613385e-06
  53    8.8498067478384e-06
  54    -0.00017334850668962
  55    -3.4240616716023e-05
  56    2.6124826350999e-05
  57    5.9643631617585e-06
  58    -4.3276480277537e-07
  59    -5.6798342292442e-06
  60    3.2247201640629e-06
  61    -1.8591556394065e-06
  62    9.7751647122394e-05
  63    0.00016189132847597
  64    -0.0007112337373656
  65    -7.1252084985089e-06
  66    -4.3757983527637e-05
  67    -3.883965090491e-05
  68    -2.9142958831413e-05
  69    0.00014212194317941
  70    -0.00042171782497876
  71    -2.3118098378523e-05
  72    -1.1526324662898e-05
  73    -2.4722156698658e-06
  74    -7.2263270674297e-06
  75    1.2116890933223e-05
  76    -0.00021107691566831
  77    -7.3920620543322e-05
  78    1.0904715774321e-05
  79    9.3669598012582e-05
  80    -0.00012661654547244
  81        1.001026634487
  82     0.000592395705988
  83    -0.0060081577081088
  84    0.00080181846625168
  85    0.0012409462796307
  86    -0.002055267493877
  87    -0.00023456267752557
  88    -0.00019742983550732
  89    0.00045148649199375
  90    -6.7745971999491e-05
  91    5.7100299438206e-05
  92    8.0033090920701e-05
  93    2.3317196507675e-05
  94    -3.9095376866421e-05
 Sym= A
 Ene=               4
 Spin= Alpha
 Occup=    1.00000
   1    4.9587400250022e-05
   2    5.7358263182027e-05
   3    -0.0013437241595891
   4    -0.00014650300004955
   5    7.0433216229019e-07
   6    7.3697626103504e-06
   7    -0.00048930927996717
   8    0.00033452233615177
   9    0.00032733272960144
  10    3.9799516039035e-06
  11    3.549321481598e-05
  12    5.0005142388286e-05
  13    -6.0109580657253e-05
  14    1.9117457336173e-06
  15    -0.00017958722467437
  16    0.00029886682410733
  17    0.0034209568428884
  18    0.00041274774247708
  19    -0.0008148139698925
  20    -0.00051345307461956
  21    -0.00013701538100794
  22    -0.0012170084148802
  23    -0.0010824640576866
  24    -2.7252342848424e-05
  25    -4.5749691194744e-05
  26    8.9730660056754e-05
  27    -5.8431229424336e-05
  28    -7.2238160916829e-05
  29    -0.00023926945077052
  30    -7.4605943222712e-05
  31    -4.1887136692926e-06
  32    0.0001342629006144
  33    9.7631068239565e-05
  34       1.0010195917554
  35    0.00078882872869951
  36    -0.005732418510921
  37    -0.00070507431118076
  38     0.001933021189236
  39    0.0011786394774746
  40    0.00026319600402188
  41    -0.00053847617970335
  42    -0.00027394654099617
  43    1.1655128872428e-05
  44    4.4803789169906e-05
  45    -8.4854446487477e-05
  46    7.156430527055e-05
  47    6.1019889154557e-05
  48    9.3336669673224e-05
  49    0.00015433535372091
  50    -0.00066364366331527
  51    7.5972244894824e-08
  52    3.8668345747331e-05
  53    -4.0778029653929e-05
  54    4.7103889773632e-05
  55    0.00040121723398889
  56    0.00014242852307883
  57    1.897154753354e-05
  58    -1.1520563785714e-05
  59    2.0731772550128e-06
  60    1.3849165433023e-05
  61    -1.206194173038e-05
  62    -3.311109455386e-05
  63    -6.8710650042719e-05
  64    0.00024727073996022
  65    -1.7866776169628e-06
  66    6.8528724846389e-07
  67    -3.4399778792583e-05
  68    -5.7192812389286e-05
  69    -2.0772254640095e-06
  70    9.0105440710326e-05
  71    3.4828789110998e-06
  72    -5.4836723202793e-06
  73    -4.2361679130169e-06
  74    -1.9818437715565e-05
  75    -2.9057659141835e-06
  76    3.5978224616405e-05
  77    3.9337307625754e-05
  78    2.4530861736772e-05
  79    -1.3852301405239e-05
  80    -4.8073284131693e-05
  81    1.0896547670631e-05
  82    2.6829215990621e-05
  83    5.3062174036907e-05
  84    2.9267875801634e-05
  85    8.8878921039105e-06
  86    -6.1740420879636e-06
  87    -4.0983846814776e-05
  88    -4.1622448066501e-06
  89    -4.8766674669942e-05
  90    1.4327676634772e-05
  91    6.3109387536884e-06
  92    -2.8849856533956e-06
  93    -9.2853382772689e-06
  94    4.8463247131353e-06
 Sym= A
 Ene=               5
 Spin= Alpha
 Occup=    1.00000
   1    -0.00018028332746717
   2    0.00029370769865811
   3    0.0034196816990357
   4    -0.00041056009535111
   5    -0.00050999262776833
   6    -0.00080912270434863
   7    0.00013704345254913
   8    -0.001082956911162
   9    -0.0012164573802348
  10    6.4083041050642e-05
  11    7.1989723739753e-05
  12    8.9422923871358e-05
  13    -5.6612003888431e-06
  14    4.5649326340051e-05
  15    4.9492699136039e-05
  16    5.7145086406819e-05
  17    -0.0013429085672229
  18    0.00014656454852446
  19    7.6651112961436e-06
  20    1.0854983873525e-06
  21    0.00048894466927874
  22    0.00032777969778222
  23    0.00033444302912699
  24    5.0074968662551e-05
  25    -2.193070545198e-06
  26    5.0029078825544e-05
  27    -3.3622824398765e-05
  28    -3.5727894812226e-05
  29    3.5916815378082e-05
  30    3.9137204459185e-05
  31    -2.4564590033735e-05
  32    -4.8088373396851e-05
  33    -1.3909937927967e-05
  34    -3.3125665755431e-05
  35    -6.8768417109645e-05
  36    0.00024732436714939
  37    1.953753716972e-06
  38    -3.4260858881407e-05
  39    8.5286979245494e-07
  40    5.7218560639165e-05
  41    9.0078474720087e-05
  42    -2.0694577512148e-06
  43    1.5424286134154e-05
  44    2.9222443648836e-06
  45    -4.2464461994054e-06
  46    -1.2908418168893e-05
  47    5.4947364621022e-06
  48    1.0934708990934e-05
  49    2.6871642931977e-05
  50    5.2703127092804e-05
  51    -2.9215229679652e-05
  52    -6.2120434288993e-06
  53    8.8522972704713e-06
  54    4.1120489374389e-05
  55    -4.8745237072599e-05
  56    -4.2349667521945e-06
  57    8.8004962503877e-07
  58    -4.8553712058566e-06
  59    -2.8877098584961e-06
  60    -1.7045969988342e-05
  61    -6.3132690847496e-06
  62       1.0010195891749
  63    0.00081784680078842
  64    -0.0056981085560911
  65    0.00069942340147865
  66    0.0011668260034113
  67    0.0019160417775803
  68    -0.0002669446621442
  69    -0.00028178006627086
  70    -0.00054979528413706
  71    -6.8069540892958e-05
  72    -6.126168540186e-05
  73    -8.5290789830088e-05
  74    2.5788511868354e-05
  75    -4.4964011342443e-05
  76    -0.00023919901362855
  77    -7.3218862504286e-05
  78    4.310713649333e-06
  79     9.77597622841e-05
  80    0.00013444925392367
  81    9.3384912757926e-05
  82    0.00015448406315605
  83    -0.00066377440183093
  84    -1.7114072431565e-08
  85    -4.0689885801864e-05
  86    3.836329199556e-05
  87    -4.7124930203189e-05
  88    0.0001424252192952
  89    0.00040092051721285
  90    -2.1581331232586e-05
  91    1.2067742212238e-05
  92    2.0847046010222e-06
  93    -9.5219793371527e-06
  94    1.1552428486312e-05
 Sym= A
 Ene=               6
 Spin= Alpha
 Occup=    1.00000
   1    -0.0026412056443372
   2    0.00010541928530275
   3     0.033698335947486
   4    0.0020154950216952
   5    -0.0031598681715331
   6    -0.0013278263515539
   7     0.043664705042438
   8    -0.0068119688839339
   9     0.019494315560652
  10    -0.0024820913315588
  11    -0.026886205109661
  12     0.017980842323318
  13    -0.026551844398924
  14    -0.010824149179646
  15    -0.0011305275552262
  16    -0.025688143397678
  17    -0.077696385054313
  18     0.048781621734771
  19    0.0045954879661174
  20     0.005744463552891
  21     0.050958278904326
  22    -0.0021714457593483
  23     -0.01675869348832
  24    0.0012477668899946
  25    -0.0012905366304329
  26    0.00068235470612806
  27    -0.00046720337463253
  28    -0.0022558230974573
  29      0.01444848248536
  30     0.017285938813848
  31    0.0023669450992363
  32    0.00059649106038426
  33    -0.00098728352412767
  34    -0.0012223798086686
  35    -0.0070402365276057
  36    -0.0043262593875073
  37     0.011523709812374
  38    -0.00084975535544318
  39    0.0029249394533769
  40    -0.0017229756149023
  41    -0.0042739728392167
  42    0.0012251739714191
  43    -0.00035579786749883
  44    0.0012029217983302
  45    -0.00025422725018831
  46    0.0014671568341147
  47    0.00073808432382103
  48    0.00022248183818961
  49    0.00094133596091365
  50    -0.00051122802712184
  51    -0.0037848195641025
  52    -0.0016113242532085
  53    0.0007068007292038
  54    -0.0085357236204402
  55    -0.00030912475891892
  56    0.0029037361521714
  57    0.00029092333429195
  58    0.0003016074232662
  59    -0.00023158705066737
  60    -0.00015867580151641
  61    -0.00056418705013359
  62    -0.001036486371241
  63    -0.0068379604437438
  64    0.0028678867927448
  65      0.54601348522383
  66     -0.38735661389768
  67     0.031728470170131
  68      0.37776543918361
  69     -0.26621773830683
  70     0.024299955849886
  71    0.00091412891970075
  72    0.0098058788355971
  73    -0.0061625796362488
  74    0.0077806948559699
  75    0.0031583657918668
  76     0.050419096860502
  77     0.047271972875698
  78    -0.0020488002232699
  79    -0.00039676610531744
  80    -0.0031069954270152
  81    0.00072886880746427
  82    -7.1288823587227e-05
  83    -0.0098958330582887
  84    -0.0037531262317009
  85    0.0013740691399306
  86    0.0025912997488462
  87    -0.0067995632858016
  88    -0.0015375702974936
  89    0.0015652382806892
  90    5.3594246846393e-05
  91    -0.00034865637003605
  92    0.00033534846290585
  93    -0.00064214526462513
  94    -0.00024780844999247
 Sym= A
 Ene=               7
 Spin= Alpha
 Occup=    1.00000
   1     0.001128054782963
   2     0.025676534445799
   3     0.077694770975399
   4     0.048761606186989
   5    -0.0057408527682902
   6    -0.004597038908078
   7     0.050955376764088
   8       0.0167521577245
   9    0.0021622843979697
  10    0.00021869061961826
  11    -0.0022553860224344
  12    -0.00068204474454881
  13    0.0013134806142789
  14    -0.0012910264774403
  15    0.0026415253675831
  16    -0.00011297562874745
  17    -0.033721356789509
  18    0.0020053532455263
  19    0.0012997282731836
  20    0.0031728519491592
  21     0.043657438490479
  22    -0.019525861606312
  23    0.0068359880630971
  24    -0.024252717752331
  25    -0.010812663555861
  26    -0.017991205442209
  27     0.011104440381709
  28    -0.026877809450803
  29    -0.050435960117007
  30    -0.047286761581817
  31    -0.0020491927911703
  32    0.0031077947166207
  33    0.00039645916109575
  34    0.0010347917129144
  35    0.0068098506814547
  36    -0.0028984022686323
  37      0.54575627298296
  38    -0.032017084268506
  39      0.38769625063422
  40      0.37758713823199
  41    -0.024497577616043
  42      0.26645216105425
  43    0.0072018122321732
  44    0.0031525508204398
  45    0.0061652559538917
  46    -0.0030915318840608
  47    0.0098034890657379
  48    -0.00073043322518913
  49    8.2132048049678e-05
  50     0.009937277124446
  51    -0.0037577639847612
  52    -0.0026261278376761
  53    -0.0013653417779503
  54    -0.0068044218855855
  55    -0.0015985551684789
  56    0.0015454484424319
  57    -0.00052961907088922
  58    -0.00024731985070586
  59    -0.00033577097478405
  60    0.00036747303291118
  61    -0.00034829449767013
  62    0.0012231385356123
  63    0.0070400345463786
  64    0.0043173619027999
  65     0.011522651734665
  66    -0.0029225049807643
  67    0.00084567585040856
  68    -0.0017238582370182
  69    -0.0012254324565546
  70    0.0042698706582769
  71    0.0010924219865159
  72    0.0007380402659641
  73    0.00025410112365155
  74    -0.0010417564404053
  75     0.001202358499287
  76    -0.014438480859416
  77    -0.017271872353435
  78    0.0023665918918637
  79    0.00098629209188967
  80    -0.0005962325370841
  81    -0.00022225466262235
  82    -0.00094180713127646
  83    0.00050909818384711
  84    -0.0037860456972474
  85    -0.0007054058617096
  86    0.0016142528809095
  87    -0.0085371082840599
  88    -0.0029028577909373
  89    0.00031181559664798
  90    7.9735778366127e-06
  91    -0.00056394027841082
  92    0.00023160046260301
  93    0.00033110392716976
  94    0.00030119764973134
 Sym= A
 Ene=               8
 Spin= Alpha
 Occup=    1.00000
   1    -0.0028814088933209
   2    -0.0033437616162225
   3     0.015023574195624
   4    0.00055927719363457
   5    0.00032407722881021
   6    -0.00019584569333177
   7     0.035625447244182
   8    -0.0058390862265577
   9     -0.01770872500295
  10    -0.00086010604752502
  11     0.026335734296016
  12    -0.016989869658571
  13    -0.025847038826815
  14    -0.010797778194357
  15    -0.0025920522894944
  16    -0.034929386538936
  17    -0.075421548222892
  18     0.044147620681956
  19    0.00050506599302209
  20    -0.0060217577240201
  21     0.027664464213051
  22    -0.018446395218761
  23     0.014003199700572
  24    0.00069932763788495
  25    0.00017135306400096
  26    -0.0016230997333862
  27    -0.0019553237288439
  28    -0.0014152960117281
  29    -0.011272239281435
  30     0.011465708607448
  31    -0.0015339563328102
  32    -0.00023712062747397
  33    0.0016314407918793