[Molden Format]
made by pyscf v[2.0.1]
[Atoms] (AU)
C   1   6     0.00000000000000     0.00000000000000     0.00000000000000
C   2   6     2.85272299873892     0.00000000000000     0.00000000000000
H   3   1     3.62066923017674     0.00000000000000     1.90331545357504
F   4   9     3.65943188126013    -2.04308229183900    -1.24074875274501
F   5   9     3.65943188126013     2.04308229183900    -1.24074875274501
F   6   9    -0.80670888252121    -2.26373667011121    -0.76755391149953
H   7   1    -0.76794623143782     1.45802422671364    -1.22342759088295
F   8   9    -0.80670888252121     0.36279929541697     2.36262976149657
[GTO]
1 0
 s    8 1.00
                  6665  0.00069158396281299
                  1000  0.0053257961529341
                   228   0.027060721042034
                 64.71    0.10165684614077
                 21.06     0.2745748236174
                 7.495    0.44829431892377
                 2.797    0.28490261071525
                0.5215   0.015194859206082
 s    8 1.00
                  6665  -0.00029326965268655
                  1000  -0.0023180354739745
                   228  -0.011499786038565
                 64.71  -0.046826727009787
                 21.06   -0.12846616875047
                 7.495   -0.30126627246289
                 2.797   -0.25563070233011
                0.5215      1.093793361012
 s    1 1.00
                0.1596                   1
 p    3 1.00
                 9.439   0.056979251590039
                 2.002    0.31320721150073
                0.5456    0.76037674173753
 p    1 1.00
                0.1517                   1
 d    1 1.00
                  0.55                   1

2 0
 s    8 1.00
                  6665  0.00069158396281299
                  1000  0.0053257961529341
                   228   0.027060721042034
                 64.71    0.10165684614077
                 21.06     0.2745748236174
                 7.495    0.44829431892377
                 2.797    0.28490261071525
                0.5215   0.015194859206082
 s    8 1.00
                  6665  -0.00029326965268655
                  1000  -0.0023180354739745
                   228  -0.011499786038565
                 64.71  -0.046826727009787
                 21.06   -0.12846616875047
                 7.495   -0.30126627246289
                 2.797   -0.25563070233011
                0.5215      1.093793361012
 s    1 1.00
                0.1596                   1
 p    3 1.00
                 9.439   0.056979251590039
                 2.002    0.31320721150073
                0.5456    0.76037674173753
 p    1 1.00
                0.1517                   1
 d    1 1.00
                  0.55                   1

3 0
 s    3 1.00
                 13.01   0.033498726389998
                 1.962    0.23480080117413
                0.4446     0.8136829578829
 s    1 1.00
                 0.122                   1
 p    1 1.00
                 0.727                   1

4 0
 s    8 1.00
                 14710  0.00072067370873197
                  2207  0.0055504869689163
                 502.8   0.028254207662589
                 142.6    0.10639582836653
                 46.47    0.28668420124307
                  16.7    0.44843796582416
                 6.356    0.26464118141135
                 1.316   0.015326060993048
 s    8 1.00
                 14710  -0.00032119389049893
                  2207  -0.0025461915683188
                 502.8  -0.012643359507821
                 142.6   -0.05195749170489
                 46.47   -0.14344713812646
                  16.7   -0.33243762329603
                 6.356   -0.21865906750347
                 1.316     1.0955904138622
 s    1 1.00
                0.3897                   1
 p    3 1.00
                 22.67   0.064834021493887
                 4.977    0.34053535983101
                 1.347    0.73464640679382
 p    1 1.00
                0.3471                   1
 d    1 1.00
                  1.64                   1

5 0
 s    8 1.00
                 14710  0.00072067370873197
                  2207  0.0055504869689163
                 502.8   0.028254207662589
                 142.6    0.10639582836653
                 46.47    0.28668420124307
                  16.7    0.44843796582416
                 6.356    0.26464118141135
                 1.316   0.015326060993048
 s    8 1.00
                 14710  -0.00032119389049893
                  2207  -0.0025461915683188
                 502.8  -0.012643359507821
                 142.6   -0.05195749170489
                 46.47   -0.14344713812646
                  16.7   -0.33243762329603
                 6.356   -0.21865906750347
                 1.316     1.0955904138622
 s    1 1.00
                0.3897                   1
 p    3 1.00
                 22.67   0.064834021493887
                 4.977    0.34053535983101
                 1.347    0.73464640679382
 p    1 1.00
                0.3471                   1
 d    1 1.00
                  1.64                   1

6 0
 s    8 1.00
                 14710  0.00072067370873197
                  2207  0.0055504869689163
                 502.8   0.028254207662589
                 142.6    0.10639582836653
                 46.47    0.28668420124307
                  16.7    0.44843796582416
                 6.356    0.26464118141135
                 1.316   0.015326060993048
 s    8 1.00
                 14710  -0.00032119389049893
                  2207  -0.0025461915683188
                 502.8  -0.012643359507821
                 142.6   -0.05195749170489
                 46.47   -0.14344713812646
                  16.7   -0.33243762329603
                 6.356   -0.21865906750347
                 1.316     1.0955904138622
 s    1 1.00
                0.3897                   1
 p    3 1.00
                 22.67   0.064834021493887
                 4.977    0.34053535983101
                 1.347    0.73464640679382
 p    1 1.00
                0.3471                   1
 d    1 1.00
                  1.64                   1

7 0
 s    3 1.00
                 13.01   0.033498726389998
                 1.962    0.23480080117413
                0.4446     0.8136829578829
 s    1 1.00
                 0.122                   1
 p    1 1.00
                 0.727                   1

8 0
 s    8 1.00
                 14710  0.00072067370873197
                  2207  0.0055504869689163
                 502.8   0.028254207662589
                 142.6    0.10639582836653
                 46.47    0.28668420124307
                  16.7    0.44843796582416
                 6.356    0.26464118141135
                 1.316   0.015326060993048
 s    8 1.00
                 14710  -0.00032119389049893
                  2207  -0.0025461915683188
                 502.8  -0.012643359507821
                 142.6   -0.05195749170489
                 46.47   -0.14344713812646
                  16.7   -0.33243762329603
                 6.356   -0.21865906750347
                 1.316     1.0955904138622
 s    1 1.00
                0.3897                   1
 p    3 1.00
                 22.67   0.064834021493887
                 4.977    0.34053535983101
                 1.347    0.73464640679382
 p    1 1.00
                0.3471                   1
 d    1 1.00
                  1.64                   1

[5d]
[7f]
[9g]

[MO]
 Sym= A
 Ene=               0
 Spin= Alpha
 Occup=    1.00000
   1       1.0019136763885
   2    0.0042333144335664
   3    -0.007466575274869
   4    -0.00056593815687638
   5    -0.00082201344116901
   6    0.0007631431158115
   7    -0.0015834046018897
   8    -0.0004731736401267
   9    0.00052575899693325
  10    0.00016830026101708
  11    -7.2532089406636e-05
  12    0.00023263415321204
  13    -0.00018807741154932
  14    8.7086290157147e-05
  15    -0.0002280368666698
  16    4.1586917764663e-05
  17    0.0032629778448106
  18    -0.00047117709752864
  19    1.733809627969e-05
  20    3.779681973825e-06
  21    -0.0015954734797378
  22    0.00011202409856877
  23    -0.00041697429362875
  24    -5.7127277092076e-05
  25    5.9658776104759e-05
  26    -1.4903676450883e-05
  27    5.8473825386081e-05
  28    -9.0545108167352e-05
  29    -3.6304285104254e-05
  30    0.00041602749801653
  31    -9.6795442929232e-05
  32    4.4672112027066e-06
  33    -3.5090070080793e-05
  34    -9.09840565938e-06
  35    -4.2791919422433e-06
  36    -0.00013940993145436
  37    -1.9049106967991e-05
  38    1.4041527045525e-05
  39    -2.9696774974241e-06
  40    -8.2413135169261e-05
  41    -9.0340443145152e-05
  42    4.8321565839617e-06
  43    -2.0289220966384e-05
  44    -9.8161397119463e-06
  45    5.8406767553071e-06
  46    2.8703865964501e-05
  47    -1.467179062451e-05
  48    1.3617040310179e-05
  49    2.9832462414504e-05
  50    -0.00027542343689926
  51    2.8432938152761e-06
  52    4.4672773148979e-07
  53    -1.2958275273962e-05
  54    1.0836879236196e-06
  55    5.0953309486138e-05
  56    3.0612093829146e-05
  57    -1.4887646901989e-05
  58    -8.1938874262841e-06
  59    -1.5646101040594e-05
  60    1.6702755846417e-05
  61    7.5325841453643e-06
  62    0.0001430206457169
  63    0.00065126334938872
  64    -6.5111043796555e-05
  65    8.0440953871608e-05
  66    0.00030662827564601
  67    0.00014242305660947
  68    -0.00014977246721284
  69    -0.00078368532921465
  70    -0.00032236183128773
  71    5.753016744166e-05
  72    -3.3665448674547e-05
  73    -9.551059805405e-05
  74    9.1202152024181e-05
  75    -6.7003607506951e-05
  76    0.00096210392782516
  77    0.0015502157548968
  78    0.00021955000305569
  79    -6.3911977033739e-05
  80    3.8349687660388e-05
  81    0.00016231776879395
  82    0.00068945392624969
  83    -0.00018927383966486
  84    7.387503088792e-05
  85    -8.3574381523641e-05
  86    -0.00032341184823763
  87    -0.00015089297682429
  88    0.00017210580983531
  89    0.00086732285980397
  90    -0.00014019196697235
  91    7.6822072815445e-05
  92    -5.7659688364699e-05
  93    -1.7626169614705e-05
  94    2.3198923544293e-05
 Sym= A
 Ene=               1
 Spin= Alpha
 Occup=    1.00000
   1    -0.00022803508445325
   2    4.1694474914077e-05
   3    0.0032630655281146
   4    0.00047135803019745
   5    1.4059290555757e-05
   6    1.0828117197073e-05
   7    0.0015955173831929
   8    -0.00024741075495651
   9    0.00035383968079122
  10    -2.3860515656596e-05
  11    0.00010770132166803
  12    1.7337004425207e-05
  13    7.7708878926179e-05
  14    1.2501430824236e-05
  15       1.0019136806066
  16    0.0042333478713203
  17    -0.0074665580990788
  18    0.00056567909130071
  19    5.6209898434494e-05
  20    -0.0011204425286535
  21    0.0015833209016901
  22    9.8604162517048e-05
  23    -0.00070048634594505
  24    -8.2676868208176e-05
  25    -0.00011333838305175
  26    -1.053224249135e-05
  27    -0.00033296621868841
  28    -4.1852645008523e-07
  29    0.0009618946186737
  30    0.0015501419635502
  31    -0.00021954523888686
  32    -1.1704795610435e-05
  33    -7.3595520458863e-05
  34    0.00014306766082223
  35    0.0006512950476434
  36    -6.5087685936489e-05
  37    -8.050804964302e-05
  38    0.00030622707818752
  39    0.0001433189144193
  40    0.00014974442005713
  41    -0.00075067203225436
  42    -0.00039313525831774
  43    4.1995191625875e-05
  44    2.9685959421904e-05
  45    -0.0001105606846209
  46    8.2235248156524e-05
  47    6.8852973944115e-05
  48    0.00016225112720312
  49    0.00068945877362674
  50    -0.00018927346307097
  51    -7.395450892798e-05
  52    -0.00030151955552239
  53    0.00014377088256534
  54    0.00015085276604749
  55    0.00077500304745406
  56    -0.00042571916292165
  57    4.133893547056e-05
  58    3.1607414577543e-05
  59    0.00011823470913808
  60    8.7184191516834e-05
  61    -7.3755696326564e-05
  62    -9.1068251869938e-06
  63    -4.2736750606806e-06
  64    -0.00013941601850835
  65    1.8922714902123e-05
  66    6.7384014694339e-06
  67    1.2671307523858e-05
  68    8.2312800072824e-05
  69    -5.4378012100281e-05
  70    -7.230552887632e-05
  71    -2.1998708738272e-05
  72    4.9291352477891e-06
  73    4.1841860267066e-06
  74    2.7717392344834e-05
  75    1.6950128258612e-05
  76    -3.6307362164591e-05
  77    0.00041599242854256
  78    9.6801073148201e-05
  79    -2.4010206913249e-05
  80    2.5978055554545e-05
  81    1.3628127408246e-05
  82    2.9831210500149e-05
  83    -0.00027543308347473
  84    -2.9527980929191e-06
  85    -9.6388134388347e-06
  86    8.6746003183858e-06
  87    -1.1684233719179e-06
  88    5.6202963934523e-05
  89    1.9360158507633e-05
  90    3.0724070711667e-06
  91    -1.1037104584389e-05
  92    1.7555908249101e-06
  93    2.707188508696e-05
  94    1.4352903399053e-06
 Sym= A
 Ene=               2
 Spin= Alpha
 Occup=    1.00000
   1    7.8590678558613e-05
   2    9.9665243961273e-05
   3    -0.0017651703812769
   4    -0.00011262494318224
   5    -1.9239662542941e-06
   6    -1.2788068400578e-07
   7    -0.00085086127077917
   8    0.00043357083679564
   9    0.00024968979980943
  10    -1.0235285154099e-05
  11    1.9006955873135e-05
  12    4.7988651871334e-05
  13    -5.8252628762189e-05
  14    2.2333558259446e-05
  15    -0.00019866610416463
  16    0.00029669581532349
  17    0.0039179402826647
  18    0.00041057776938429
  19    -0.00086140039388638
  20    -0.00053814627242793
  21    -0.00030773064788472
  22    -0.0012089128162696
  23    -0.0011226380716947
  24    -3.696600974418e-05
  25    -6.0448282679776e-05
  26    8.4186026114508e-05
  27    -5.912959192498e-05
  28    -5.778395210434e-05
  29    -0.00025019710347707
  30    -8.686786934771e-05
  31    -4.7417323794262e-06
  32    0.00012967047668302
  33    9.9957664124411e-05
  34       1.0010275933618
  35    0.00060791925454743
  36    -0.0060197038718846
  37    -0.00072208350333135
  38    0.0020520387971938
  39    0.0012785251245238
  40    0.00026071848469743
  41    -0.00048965025806797
  42    -0.00018147319603681
  43    1.1109853565587e-05
  44    4.1117146485356e-05
  45    -7.954802408439e-05
  46    7.2196659976333e-05
  47    6.1602736497862e-05
  48    0.00010309442092321
  49    0.00017229124136476
  50    -0.00074229026766129
  51    1.889383471601e-06
  52    3.8606021131681e-05
  53    -4.2853610692853e-05
  54    5.0358108406828e-05
  55    0.00043521888527223
  56    0.00013312488172533
  57    1.754104280659e-05
  58    -1.1274791966604e-05
  59    3.6406600536779e-06
  60    1.7882268852424e-05
  61    -1.251542743141e-05
  62    -5.8841643250264e-05
  63    -0.00011793236428056
  64    0.00035798436730829
  65    -2.8059068567837e-05
  66    -3.3202221067299e-05
  67    6.6034987846885e-08
  68    6.6027728362899e-05
  69    9.1374780586549e-05
  70    2.4587223687671e-06
  71    1.2871736232494e-05
  72    2.1522972083841e-06
  73    -5.6081247235273e-06
  74    -8.5818871517529e-06
  75    -7.5254644396346e-07
  76    0.00012768226152955
  77    -0.0001001881377185
  78    2.110294951983e-05
  79    -4.5561467889876e-05
  80    -2.9892997437711e-05
  81    -1.8503875202548e-05
  82    -2.861411451211e-05
  83    0.00013668310874633
  84    -7.7856533408204e-06
  85    7.6872531325483e-07
  86    -1.552375140968e-05
  87    0.00015552215254168
  88    -5.715536121895e-05
  89    -3.9829253264713e-05
  90    1.805504274287e-06
  91    -5.0930310168796e-06
  92    1.4538200539869e-05
  93    -3.7277404585245e-06
  94    -7.5546532315984e-07
 Sym= A
 Ene=               3
 Spin= Alpha
 Occup=    1.00000
   1    -0.00019824784905151
   2    0.00029912732241404
   3    0.0039176414077535
   4    -0.00041179376812496
   5    -0.00096908069558505
   6    -0.00031495090241961
   7    0.0003069504435921
   8    -0.0016371227297921
   9    -0.00020519507692671
  10    -4.6166898488941e-05
  11    5.6725728210842e-06
  12    7.559153624671e-05
  13    -6.417325686215e-05
  14    8.3919738606179e-05
  15    7.8634701351654e-05
  16    0.00010002227594965
  17    -0.0017641886737275
  18    0.00011209564607528
  19    -1.5601498051888e-06
  20    -1.4052175901917e-06
  21    0.00085020443739956
  22    0.00047002928889149
  23    0.00017189297517425
  24    -1.2548464843616e-05
  25    -4.8334835937049e-06
  26    4.572554164364e-05
  27    -5.9525908764145e-05
  28    -2.8708998280326e-05
  29    0.00012765846313525
  30    -0.00010028312587166
  31    -2.112203861455e-05
  32    -5.2205264022308e-05
  33    -1.5672645570744e-05
  34    -5.8822702236196e-05
  35    -0.00011785972489278
  36    0.00035805500798391
  37    2.7747315161651e-05
  38    -2.1492501089797e-05
  39    -2.5481954226013e-05
  40    -6.6073229371734e-05
  41    6.063449122051e-05
  42    6.8413293147368e-05
  43    1.0697229422952e-05
  44    1.9570582414683e-06
  45    -7.715605538671e-06
  46    -9.8646802137156e-06
  47    -1.1930262428628e-06
  48    -1.849330104077e-05
  49    -2.8584934804935e-05
  50    0.00013668862587634
  51    7.8176400115506e-06
  52    -1.1371256662058e-05
  53    1.0581894179226e-05
  54    -0.00015542636683013
  55    -6.7218573356284e-05
  56    -1.8234049418834e-05
  57    -1.0287054353896e-05
  58    -2.6945876347615e-06
  59    2.8269357373104e-06
  60    -1.0710699386848e-05
  61    4.3896046731312e-06
  62       1.0010275819324
  63    0.00059539514754015
  64    -0.0060346814694022
  65    0.00071755934088706
  66    0.0023118194303305
  67    0.00074799587860655
  68    -0.00026390990297895
  69    -0.00044477472460543
  70    -0.00026000648306373
  71    3.2321623753604e-05
  72    -2.080637424745e-05
  73    -5.8772307835475e-05
  74    8.4226833009143e-05
  75    -7.1069943064615e-05
  76    -0.0002510678774525
  77    -8.8259401029921e-05
  78    4.708719810722e-06
  79    0.0001598582197737
  80    3.5081157762593e-05
  81    0.00010306016974659
  82    0.00017217764015772
  83    -0.00074198844471376
  84    -1.8329381593352e-06
  85    -8.0642208602334e-06
  86    5.7032411026872e-05
  87    -5.0199798547248e-05
  88    0.00038174598129009
  89    0.00024771705011583
  90    -1.006419457374e-05
  91    2.3472848497133e-06
  92    -2.3080800934605e-05
  93     1.92936327591e-06
  94    1.6671913217522e-05
 Sym= A
 Ene=               4
 Spin= Alpha
 Occup=    1.00000
   1    8.6042268149878e-05
   2    0.00012332101599104
   3    -0.0016124370172549
   4    -0.0001410734584105
   5    3.3229146939516e-05
   6    -2.5462644434224e-05
   7    -0.00064863671527651
   8    -0.00025117806851187
   9    0.00034399869992372
  10    -2.69414940242e-07
  11    4.0543069768444e-05
  12    -7.652438917974e-05
  13    -6.6107187311425e-05
  14    -2.9903876847663e-05
  15    -0.00018708101261445
  16    0.00026033924184723
  17    0.0035908041035264
  18    0.00038113605408947
  19    0.00077537299419404
  20    -0.00048552412831757
  21    -0.00020559375342758
  22    0.0011521820978535
  23    -0.0010955005848102
  24    -2.6003613237291e-05
  25    -4.3453487737917e-05
  26    -8.9519923817771e-05
  27    -6.2312732040293e-05
  28    6.4824456663034e-05
  29    -0.00023915522549462
  30    -7.1863190562299e-05
  31    -5.4041498845048e-06
  32    -0.00012914363982353
  33    0.00010353173121507
  34    9.9436023012994e-05
  35    0.00016720523884882
  36    -0.00070395454105958
  37    -4.0941161951082e-07
  38    -3.4530866984853e-05
  39    -3.9964396691743e-05
  40    4.6881884957542e-05
  41    -0.00040619383908692
  42    0.00013551179143586
  43    1.8156339894273e-05
  44    -1.185296536869e-05
  45    -2.548095780875e-06
  46    1.5990962025386e-05
  47    1.1869255090741e-05
  48       1.0010210078941
  49    0.00099070738347938
  50    -0.0054970068459854
  51    -0.00070707606657133
  52    -0.0017991606026525
  53    0.0010800049456149
  54    0.00028346796871557
  55    0.00060450421204963
  56    -0.00030209635221176
  57    1.1428851326227e-05
  58    4.234707295785e-05
  59    8.5840927650634e-05
  60    7.4321376393111e-05
  61    -5.9093263842706e-05
  62    -1.9500819989177e-05
  63    -3.2761333935703e-05
  64    0.00016445012086782
  65    2.0916793887433e-06
  66    7.0103651356397e-06
  67    6.6451974652994e-06
  68    8.089102521626e-05
  69    7.2063005282506e-05
  70    -2.309343912073e-05
  71    -5.9954571766866e-06
  72    1.6031764536966e-06
  73    -1.0555971265583e-05
  74    -1.2129127039372e-05
  75    5.0670619176345e-07
  76    8.2023063272314e-05
  77    0.00012217794517065
  78    -3.6297663241159e-05
  79    -3.5140378810772e-06
  80    -1.8124718013236e-05
  81    1.324451968455e-06
  82    9.5083802878572e-06
  83    6.3068738381627e-05
  84    9.7308636094792e-06
  85    2.5050919819302e-06
  86    -1.5470404438147e-05
  87    6.4340822199591e-05
  88    -4.2486879456197e-06
  89    -4.393117061507e-05
  90    1.3477348311681e-05
  91    -1.291114133995e-06
  92    -6.9251580421059e-06
  93    -2.5121386803268e-06
  94    -3.9395740940004e-06
 Sym= A
 Ene=               5
 Spin= Alpha
 Occup=    1.00000
   1    -0.00018558085662335
   2    0.0002737412477534
   3    0.0035957340880605
   4    -0.00038696336214549
   5    0.00012923300835674
   6    0.00092373244383868
   7    0.00020858363176074
   8    -9.784504365813e-05
   9    0.0015857690591086
  10    0.00010742625487192
  11    -7.6352508229664e-05
  12    3.6578218117895e-05
  13    1.2724031427364e-05
  14    -7.9899870720938e-06
  15    8.5906323467616e-05
  16    0.00012120583859741
  17    -0.0016178759558951
  18    0.00014413943102154
  19    2.0408735263366e-06
  20    4.2723514054021e-05
  21    0.00065265255663298
  22    0.00010159428772833
  23    -0.00040994612594126
  24    9.882469896852e-05
  25    4.8268574916699e-05
  26    1.9566653049882e-05
  27    -8.8402554549105e-06
  28    -1.1902914585265e-05
  29    8.1518791153243e-05
  30    0.00011975262287796
  31    3.6182613592618e-05
  32    -1.6127025747018e-05
  33    9.1280666953337e-06
  34    -1.950401214616e-05
  35    -3.2424756220275e-05
  36    0.00016574312472768
  37    -2.9616336611949e-06
  38    1.0198315365623e-05
  39    1.3608646435618e-06
  40    -8.1866544254255e-05
  41    2.9453269345005e-05
  42    6.9859806356922e-05
  43    1.4469606724794e-05
  44    6.7271040585576e-07
  45    9.2444435256764e-06
  46    -3.7758505318252e-07
  47    -1.4895478593046e-06
  48    1.2384970367119e-06
  49    9.641116387697e-06
  50    6.4844273514382e-05
  51    -1.0347878628789e-05
  52    -1.072743430046e-05
  53    1.2014697488849e-05
  54    -6.525764816802e-05
  55    -3.7167714351071e-05
  56    2.489015164236e-05
  57    8.8117905944593e-06
  58    2.2062964384713e-06
  59    -1.1457214279224e-05
  60    -5.2510114429474e-06
  61    3.4664941978802e-06
  62    9.9364148613868e-05
  63    0.0001668679480097
  64    -0.00070408663891036
  65    4.8335187609002e-08
  66    -5.314658090844e-05
  67    -1.0796621251603e-06
  68    -4.7193330713298e-05
  69    -0.00015765933996608
  70    -0.00039857080683302
  71    -3.6886371068526e-06
  72    -1.661160330899e-05
  73    -2.3559417214827e-05
  74    3.2239063255887e-06
  75    1.3975745852074e-06
  76    -0.00023593730983193
  77    -7.2121633432461e-05
  78    4.9630223911711e-06
  79    -3.5530332435627e-06
  80    -0.00016464418042093
  81       1.0010209737051
  82    0.00091407111947821
  83     -0.00558660256267
  84    0.00076250385515578
  85    -0.00035247962253051
  86    -0.0021116372298785
  87    -0.00024567718421854
  88    0.00014097724098143
  89    0.0006312519315586
  90    -0.00010883292973904
  91    7.1010081387301e-05
  92    -3.0858573525392e-05
  93    4.783664051106e-06
  94    5.1996968632948e-06
 Sym= A
 Ene=               6
 Spin= Alpha
 Occup=    1.00000
   1    -0.00087720920725376
   2    -0.015657493995179
   3     -0.02758006994914
   4     0.014959734040676
   5     0.033754194024021
   6     0.010360377261496
   7    0.0090050526137685
   8     0.044914396290673
   9     0.013423533744858
  10    -0.00089335128976623
  11     0.016708240020722
  12     0.035136341731575
  13    -0.014799256499536
  14    -0.0044092024224943
  15    -0.0022593522917608
  16    -0.018800054946059
  17     -0.01437652750973
  18     0.018390297429211
  19    0.00090919486594359
  20    -0.0040203047431838
  21    -0.0024438405188799
  22    0.0057597710043056
  23    0.00032172306227156
  24    0.00029856087920213
  25    7.061541476995e-05
  26    0.00081571001431251
  27    -0.00067492948527536
  28    -0.00043779196379377
  29    -0.0089349576449702
  30     0.007174991461723
  31    -0.0010106495556662
  32    0.00094838456726494
  33    0.0015121796814995
  34    -0.0010740306520026
  35    0.0011413090124797
  36     0.013620247196239
  37    -0.005738605712069
  38     0.005845244582607
  39    0.0045360526094811
  40    -0.0081385145570219
  41     0.006039645303909
  42    0.0049368676774224
  43    -7.7563882016866e-05
  44    -2.0649615261026e-05
  45    0.00017268895032771
  46    -0.00021785838614887
  47    7.188250437261e-05
  48    0.00094475337861704
  49    0.0026892520559468
  50    -0.0019884587055029
  51    -0.001763301717716
  52    -0.0024491959637848
  53    -0.001682475018286
  54    0.0021550928616478
  55    -0.0024654936373208
  56    -0.0020317916220229
  57    7.1742639712313e-05
  58    0.00013343062947196
  59    9.592224550176e-05
  60    -0.000350987183516
  61    -0.00042563284187552
  62    -0.0019177445661557
  63     0.013592159924779
  64     0.051784924132334
  65    0.0062962130936538
  66      0.03761984389609
  67     0.027314889637908
  68    0.0073119064995686
  69     0.035012372750256
  70     0.025887340652821
  71    -0.00055103159606169
  72    0.00070291668099044
  73    0.00039676219270381
  74    -4.0147542732815e-05
  75    -0.00014339927177164
  76    -0.024573200986969
  77    -0.018547684781846
  78    0.00059990446082669
  79    -0.00095984372898687
  80    -0.0010846556685249
  81    -0.0005337558047233
  82    -0.0016656064068026
  83    0.0011525161417165
  84        0.304295798767
  85      0.58864453892337
  86     0.015517151442284
  87      0.21201624668733
  88      0.40704341393584
  89    0.0090865137674904
  90    -0.00098200163769683
  91    -0.0063248859112686
  92    -0.012208295436163
  93    0.0039884929984905
  94    0.0042775638145556
 Sym= A
 Ene=               7
 Spin= Alpha
 Occup=    1.00000
   1    0.0011724793589535
   2     0.027840724403092
   3     0.082347665457107
   4     0.047906532001197
   5    -0.002662927284931
   6    -0.00093164400315153
   7     0.050277862116995
   8     0.017360680445515
   9     0.008769798459995
  10    -0.00098805006138274
  11    -0.0010308800065642
  12    -0.00096323884830468
  13    0.00095802652043776
  14    -0.0019447520410725
  15    0.0030525770419593
  16    0.0007522349060721
  17    -0.036010322921977
  18    0.0022866182223435
  19    0.0012342258275169
  20    0.0020943981448878
  21     0.046559988006386
  22    -0.019929417246598
  23    0.0090747138255994
  24    -0.023790184665842
  25     -0.01072964387825
  26    -0.017589369800352
  27     0.011591475661765
  28     -0.02718496556217
  29    -0.051127080515666
  30    -0.050299332659642
  31    -0.0019767882126857
  32     0.003140902184534
  33    0.0007725249514385
  34    0.00099138868472972
  35    0.0071308111873847
  36    -0.0020551212409306
  37      0.55129247104766
  38    -0.022542956205701
  39      0.37915963661701
  40      0.38104973810836
  41     -0.01829050100483
  42      0.26139860438631
  43    0.0068405923139194
  44    0.0029952644289767
  45    0.0062180722925676
  46    -0.0033171640684771
  47    0.0099855591351576
  48    -0.0009872472965026
  49    -0.00054843665241034
  50     0.011492758482536
  51    -0.0036082540048183
  52     -0.00211046393744
  53    -0.0016475204815004
  54    -0.0076543158282369
  55    -0.0019766804204517
  56    0.0010819009031324
  57    -0.00055628934637345
  58    -0.00028700482132172
  59    -0.00033473384674896
  60    0.00033255853623256
  61    -0.00035086661732601
  62    0.00052147017729722
  63    0.0054511563251991
  64    0.0085704836840936
  65     0.010123316700524
  66    0.0016767568578444
  67    -0.0053636052181158
  68    -0.00012502562455433
  69    0.0038868108184911
  70    -0.0014571955802013
  71    0.00029857909607711
  72    0.0010077070213493
  73    0.00017511446472123
  74    -0.0013478287833802
  75    0.00096849724814261
  76    -0.0061726973342387
  77    -0.013055179676937
  78    0.0022866792757832
  79    -0.0005068978565648
  80    -0.0015179318587105
  81    0.00084521654975575
  82    -0.00059667729131384
  83    -0.010998904839463
  84    -0.0056087953727314
  85    0.00048795011152778
  86    0.0062999793685246
  87    -0.0092929820456693
  88    -0.0018262555116523
  89    0.0078719141180285
  90    -0.00044369026172227
  91    -0.000661326211927
  92    4.948866405849e-05
  93    0.00016410511784884
  94    -9.5853187013261e-05
 Sym= A
 Ene=               8
 Spin= Alpha
 Occup=    1.00000
   1    0.00099336166934282
   2     0.033836405272493
   3     0.091250761198088
   4     0.042356121724448
   5    0.0081776216768377
   6    -0.008296515764425
   7      0.01848063829322
   8    -0.005010276154547
   9    -0.00090399582039702
  10    -0.00010936159696896
  11    -0.0014127873022277
  12    0.0007777218919607
  13    0.0013420253338087
  14    0.00074779802030902
  15    0.0030102038288466
  16    0.0039407754615328
  17    -0.012569761178503
  18    0.0010150184920473
  19    0.0012361713519063
  20    -0.0010530890906158
  21     0.032448405166207
  22     0.015636084071191
  23    0.0093091896489714
  24    -0.022902226350138
  25    -0.010543837669616
  26     0.016833857058801
  27     0.012278316752039
  28     0.026388481224211
  29    -0.050646820807295
  30    -0.047458642499503
  31    -0.0017488910726232
  32    -0.0028367666603802
  33    0.00082122981330607
  34    -0.00068768993508384