[Molden Format]
made by pyscf v[2.0.1]
[Atoms] (AU)
C   1   6     0.00000000000000     0.00000000000000     0.00000000000000
C   2   6     2.85272299873892     0.00000000000000     0.00000000000000
H   3   1     3.62066923017674     0.00000000000000     1.90331545357504
F   4   9     3.65943188126013    -2.04308229183900    -1.24074875274501
F   5   9     3.65943188126013     2.04308229183900    -1.24074875274501
F   6   9    -0.80670888252121     0.36279929541697    -2.36262976149657
H   7   1    -0.76794623143782     1.45802422671364     1.22342759088295
F   8   9    -0.80670888252121    -2.26373667011121     0.76755391149953
[GTO]
1 0
 s    8 1.00
                  6665  0.00069158396281299
                  1000  0.0053257961529341
                   228   0.027060721042034
                 64.71    0.10165684614077
                 21.06     0.2745748236174
                 7.495    0.44829431892377
                 2.797    0.28490261071525
                0.5215   0.015194859206082
 s    8 1.00
                  6665  -0.00029326965268655
                  1000  -0.0023180354739745
                   228  -0.011499786038565
                 64.71  -0.046826727009787
                 21.06   -0.12846616875047
                 7.495   -0.30126627246289
                 2.797   -0.25563070233011
                0.5215      1.093793361012
 s    1 1.00
                0.1596                   1
 p    3 1.00
                 9.439   0.056979251590039
                 2.002    0.31320721150073
                0.5456    0.76037674173753
 p    1 1.00
                0.1517                   1
 d    1 1.00
                  0.55                   1

2 0
 s    8 1.00
                  6665  0.00069158396281299
                  1000  0.0053257961529341
                   228   0.027060721042034
                 64.71    0.10165684614077
                 21.06     0.2745748236174
                 7.495    0.44829431892377
                 2.797    0.28490261071525
                0.5215   0.015194859206082
 s    8 1.00
                  6665  -0.00029326965268655
                  1000  -0.0023180354739745
                   228  -0.011499786038565
                 64.71  -0.046826727009787
                 21.06   -0.12846616875047
                 7.495   -0.30126627246289
                 2.797   -0.25563070233011
                0.5215      1.093793361012
 s    1 1.00
                0.1596                   1
 p    3 1.00
                 9.439   0.056979251590039
                 2.002    0.31320721150073
                0.5456    0.76037674173753
 p    1 1.00
                0.1517                   1
 d    1 1.00
                  0.55                   1

3 0
 s    3 1.00
                 13.01   0.033498726389998
                 1.962    0.23480080117413
                0.4446     0.8136829578829
 s    1 1.00
                 0.122                   1
 p    1 1.00
                 0.727                   1

4 0
 s    8 1.00
                 14710  0.00072067370873197
                  2207  0.0055504869689163
                 502.8   0.028254207662589
                 142.6    0.10639582836653
                 46.47    0.28668420124307
                  16.7    0.44843796582416
                 6.356    0.26464118141135
                 1.316   0.015326060993048
 s    8 1.00
                 14710  -0.00032119389049893
                  2207  -0.0025461915683188
                 502.8  -0.012643359507821
                 142.6   -0.05195749170489
                 46.47   -0.14344713812646
                  16.7   -0.33243762329603
                 6.356   -0.21865906750347
                 1.316     1.0955904138622
 s    1 1.00
                0.3897                   1
 p    3 1.00
                 22.67   0.064834021493887
                 4.977    0.34053535983101
                 1.347    0.73464640679382
 p    1 1.00
                0.3471                   1
 d    1 1.00
                  1.64                   1

5 0
 s    8 1.00
                 14710  0.00072067370873197
                  2207  0.0055504869689163
                 502.8   0.028254207662589
                 142.6    0.10639582836653
                 46.47    0.28668420124307
                  16.7    0.44843796582416
                 6.356    0.26464118141135
                 1.316   0.015326060993048
 s    8 1.00
                 14710  -0.00032119389049893
                  2207  -0.0025461915683188
                 502.8  -0.012643359507821
                 142.6   -0.05195749170489
                 46.47   -0.14344713812646
                  16.7   -0.33243762329603
                 6.356   -0.21865906750347
                 1.316     1.0955904138622
 s    1 1.00
                0.3897                   1
 p    3 1.00
                 22.67   0.064834021493887
                 4.977    0.34053535983101
                 1.347    0.73464640679382
 p    1 1.00
                0.3471                   1
 d    1 1.00
                  1.64                   1

6 0
 s    8 1.00
                 14710  0.00072067370873197
                  2207  0.0055504869689163
                 502.8   0.028254207662589
                 142.6    0.10639582836653
                 46.47    0.28668420124307
                  16.7    0.44843796582416
                 6.356    0.26464118141135
                 1.316   0.015326060993048
 s    8 1.00
                 14710  -0.00032119389049893
                  2207  -0.0025461915683188
                 502.8  -0.012643359507821
                 142.6   -0.05195749170489
                 46.47   -0.14344713812646
                  16.7   -0.33243762329603
                 6.356   -0.21865906750347
                 1.316     1.0955904138622
 s    1 1.00
                0.3897                   1
 p    3 1.00
                 22.67   0.064834021493887
                 4.977    0.34053535983101
                 1.347    0.73464640679382
 p    1 1.00
                0.3471                   1
 d    1 1.00
                  1.64                   1

7 0
 s    3 1.00
                 13.01   0.033498726389998
                 1.962    0.23480080117413
                0.4446     0.8136829578829
 s    1 1.00
                 0.122                   1
 p    1 1.00
                 0.727                   1

8 0
 s    8 1.00
                 14710  0.00072067370873197
                  2207  0.0055504869689163
                 502.8   0.028254207662589
                 142.6    0.10639582836653
                 46.47    0.28668420124307
                  16.7    0.44843796582416
                 6.356    0.26464118141135
                 1.316   0.015326060993048
 s    8 1.00
                 14710  -0.00032119389049893
                  2207  -0.0025461915683188
                 502.8  -0.012643359507821
                 142.6   -0.05195749170489
                 46.47   -0.14344713812646
                  16.7   -0.33243762329603
                 6.356   -0.21865906750347
                 1.316     1.0955904138622
 s    1 1.00
                0.3897                   1
 p    3 1.00
                 22.67   0.064834021493887
                 4.977    0.34053535983101
                 1.347    0.73464640679382
 p    1 1.00
                0.3471                   1
 d    1 1.00
                  1.64                   1

[5d]
[7f]
[9g]

[MO]
 Sym= A
 Ene=               0
 Spin= Alpha
 Occup=    1.00000
   1       1.0019099450851
   2    0.0042189656837311
   3    -0.007364815191181
   4    -0.00059672953958193
   5    -0.00080487511718386
   6    -0.00062563449397819
   7    -0.0015559440143004
   8    -0.00041881742378672
   9    -0.00026161612547379
  10    0.0001500906423588
  11    6.6030729794233e-05
  12    -0.00021198089868071
  13    -0.00019791808416988
  14    8.629275377124e-05
  15    -0.00023170632452248
  16    2.4126981246567e-05
  17    0.0033015059677691
  18    -0.00048861524743236
  19    1.0008273251089e-05
  20    -1.5302756240942e-06
  21    -0.0015030141463271
  22    1.3345741309573e-05
  23    -0.00018968040180977
  24    -6.8299499871922e-05
  25    -0.00010090483994545
  26    2.2238873139412e-05
  27    5.595768752056e-05
  28    -8.5645389703675e-05
  29    -4.7457892139684e-05
  30    0.00025815554603065
  31    -7.9919763736539e-05
  32    -2.5516443856748e-06
  33    -7.1583812479442e-05
  34    1.7023507442136e-06
  35    1.9644345263559e-05
  36    -0.00020247730014366
  37    -2.9569117386186e-05
  38    1.6828661935787e-05
  39    5.5243285293409e-06
  40    -8.7295523879872e-05
  41    -0.00010823244272771
  42    -3.7940642562783e-05
  43    -1.5764243732689e-05
  44    -1.0481712097918e-05
  45    -1.2306582175797e-06
  46    3.5016768473644e-05
  47    -1.4990093122775e-05
  48    -1.2846545951596e-05
  49    -1.2732277292047e-05
  50    -0.00011930876841456
  51    -3.777678815286e-06
  52    -1.3577741201513e-05
  53    1.975309725729e-06
  54    -9.779098274073e-05
  55    5.9937340290617e-05
  56    -3.0058441084475e-05
  57    -1.6819498497821e-05
  58    -7.6505342533203e-06
  59    -1.2082040074866e-05
  60    2.706897943595e-05
  61    1.4315388809879e-05
  62    0.00013608174448267
  63    0.00063699612036816
  64    -1.5089402718703e-05
  65    8.2081142213922e-05
  66    -8.0936351192713e-05
  67    0.0003303681166775
  68    -0.00014968960631498
  69    0.0001492930853589
  70    -0.00081859798317923
  71    -0.00012981709502975
  72    -6.9251817034727e-05
  73    5.362371475951e-05
  74    -1.8520321522007e-05
  75    2.2285840051578e-05
  76    0.00088251950986891
  77    0.0014802850174968
  78    0.00021232077391297
  79    -1.685069620672e-05
  80    -2.8782810706082e-05
  81    0.00014783110366964
  82    0.0006609793443385
  83    -9.4981477761378e-05
  84    7.7269045115972e-05
  85    0.00031151407581417
  86    -0.00013389094813268
  87    -0.00014339757121802
  88    -0.00081770952071136
  89    0.00028630951748929
  90    6.0773166401983e-05
  91    3.5021890141092e-05
  92    9.4226015230176e-05
  93    9.6623562579619e-05
  94    -6.765049503125e-05
 Sym= A
 Ene=               1
 Spin= Alpha
 Occup=    1.00000
   1    -0.00023171265866162
   2    2.408085964534e-05
   3    0.0033014600258028
   4    0.00048855248600916
   5    -7.607627850247e-06
   6    6.7075293732976e-06
   7    0.0015029831070759
   8    -0.00015389507813274
   9    -0.00011171199394729
  10    -1.7653399671214e-05
  11    0.00013047391248636
  12    -2.6831060314065e-05
  13    8.5195868748929e-05
  14    2.2247419904158e-05
  15       1.0019099426215
  16    0.0042189513857618
  17    -0.0073648102670608
  18    0.00059676822619666
  19    3.812032098708e-05
  20    -0.0010186660415906
  21    0.0015559379824993
  22    6.8810615357256e-05
  23    -0.00048897402791055
  24    -6.2230938681473e-05
  25    -0.00010853816729294
  26    -6.255247631582e-06
  27    -0.00032051920878814
  28    4.9007929331217e-06
  29    0.00088257282957652
  30    0.0014803088613526
  31    -0.00021232165917682
  32    -1.1218165480634e-05
  33    -3.1412803515771e-05
  34    0.00013587779540273
  35    0.00063698223856968
  36    -1.50871982769e-05
  37    -8.2346393256769e-05
  38    0.00030500339842269
  39    0.00015029060965752
  40    0.00014950146372364
  41    -0.00072310833940975
  42    -0.00041186432853067
  43    3.9598496725978e-05
  44    2.7440236509401e-05
  45    -0.00011052693446561
  46    7.9295769994516e-05
  47    6.7372081678023e-05
  48    0.00014780806969023
  49    0.00066099937445248
  50    -9.4957010591914e-05
  51    -7.7282751934469e-05
  52    -0.00030275514882345
  53    0.00015267215252095
  54    0.00014338719021756
  55    0.00074497047549821
  56    -0.00044229859946271
  57    3.8539002416491e-05
  58    2.9310887482067e-05
  59    0.00011576994783903
  60    8.3785949610809e-05
  61    -7.0313762460154e-05
  62    1.7435301871435e-06
  63    1.9704169600313e-05
  64    -0.00020240941850115
  65    2.9496816996988e-05
  66    -6.5941025418897e-06
  67    1.6412726752227e-05
  68    8.7251500621587e-05
  69    4.0501063312955e-05
  70    -0.0001073193077032
  71    -2.0733744678632e-05
  72    1.8217806803206e-05
  73    3.5839276829993e-06
  74    3.2146915333605e-05
  75    -1.6059093465937e-06
  76    -4.7443000394366e-05
  77    0.00025817979175844
  78    7.9918277809035e-05
  79    -5.3197444266256e-05
  80    -4.7967831344331e-05
  81    -1.2845338788936e-05
  82    -1.2725593983643e-05
  83    -0.00011930329224247
  84    3.7824372403229e-06
  85    1.0231141963729e-05
  86    -9.170193274719e-06
  87    9.7800001024178e-05
  88    -6.1561509004719e-05
  89    2.6567420393854e-05
  90    -2.6075091670737e-05
  91    -6.0487813035829e-06
  92    -3.1143025752912e-06
  93    2.1725263571321e-05
  94    1.5061614449769e-05
 Sym= A
 Ene=               2
 Spin= Alpha
 Occup=    1.00000
   1    -0.00018398555110133
   2    0.0002932009816998
   3    0.0035541158729122
   4    -0.00040297750322357
   5    -0.00090959833944198
   6    0.00029995980009504
   7    0.00023033861832217
   8    -0.0016784236632313
   9    0.00014214991823266
  10    -5.9340933030153e-05
  11    -3.0817135050849e-05
  12    -7.9482844641447e-05
  13    -6.8582006791343e-05
  14    9.804436722849e-05
  15    3.9095836848733e-05
  16    3.6226348872933e-05
  17    -0.0012965503380005
  18    0.00013947667139553
  19    -2.0777484972801e-05
  20    -9.4303334386967e-06
  21    0.00069015257887422
  22    0.00033832854329032
  23    0.00014154281226902
  24     4.99101345067e-06
  25    -1.6054335105779e-05
  26    -1.6247143240813e-05
  27    -9.0267012264248e-05
  28    -2.0635359203592e-05
  29    6.4596671648285e-05
  30    -0.00017197522502013
  31    3.4571267787138e-05
  32    -7.0782814382009e-06
  33    -7.9420364267539e-06
  34    5.9194095639031e-06
  35    9.3506479819725e-06
  36    8.2004957400049e-05
  37    -2.1160723217151e-05
  38    -8.9872598585305e-06
  39    -2.1999195088089e-05
  40    0.00011447855539513
  41    3.220368963479e-05
  42    2.707137258208e-05
  43    1.0491444636948e-05
  44    9.3825792800597e-06
  45    -9.3788877976746e-06
  46    -2.1263465057066e-05
  47    2.6958855666166e-06
  48    -2.9053587008319e-05
  49    -5.2580582697487e-05
  50    0.00014240049990925
  51    1.9534080536364e-05
  52    -3.0641205605631e-06
  53    7.6894165059788e-06
  54    -0.0001639715162757
  55    -4.4373387746074e-05
  56    -1.3147913534634e-05
  57    -4.864234446316e-06
  58    1.154801322415e-06
  59    5.6213686029203e-06
  60    -2.1637783154937e-06
  61    -3.206312359516e-06
  62    9.6042465693922e-05
  63    0.00016011198443536
  64    -0.00068917792750897
  65    -2.6278933341469e-06
  66    -1.0817971961405e-05
  67    -5.411678785026e-05
  68    -3.7358305570903e-05
  69    0.00038482516488578
  70    -0.00021805917283686
  71    -5.5020677083653e-06
  72    -1.4023311853787e-06
  73    2.3805462758366e-05
  74    1.3980020166772e-06
  75    1.6992937912608e-05
  76    -0.00021043846434089
  77    6.0479776730147e-08
  78    1.2486689028516e-05
  79    0.0001555284263274
  80    -4.4977936022235e-05
  81       1.0010304986159
  82    0.00082013949217951
  83    -0.005781514259717
  84    0.00074127693917986
  85    0.0021331031654657
  86    -0.00071257732113484
  87    -0.00027777874055442
  88    -0.00056236143126108
  89    0.00025580540465545
  90    3.7873494447459e-05
  91    1.8481681499007e-05
  92    6.2342703785404e-05
  93    8.5475431296781e-05
  94    -7.2893985092267e-05
 Sym= A
 Ene=               3
 Spin= Alpha
 Occup=    1.00000
   1    3.9411080934908e-05
   2    3.8171471384473e-05
   3    -0.0012953455621255
   4    -0.00013763465012857
   5    7.0480078054452e-06
   6    -2.2163563781271e-05
   7    -0.00069020353492182
   8    -0.00010922723905429
   9    0.00035088074288989
  10    3.2440860579663e-05
  11    2.5565807551171e-05
  12    -4.2886236579356e-05
  13    -7.4092168712447e-05
  14    -5.3345663619627e-07
  15    -0.00018245386347836
  16    0.0003039823648852
  17    0.0035570453302153
  18    0.00040793163306059
  19    0.00082476544772365
  20    -0.00051156447189065
  21    -0.00022908077602528
  22    0.0011873906441121
  23    -0.0011944870592215
  24    -3.9934948905296e-05
  25    -5.6275273186671e-05
  26    -9.8995178625407e-05
  27    -5.6314425157293e-05
  28    8.816180195113e-05
  29    -0.00021089645426877
  30    -3.0874412743901e-06
  31    -1.2246092299051e-05
  32    -0.00013404984397652
  33    9.0009760945098e-05
  34    9.602409955761e-05
  35    0.00015914624314882
  36    -0.00069094876541043
  37    2.9657712589062e-06
  38    -3.7154768870875e-05
  39    -4.3719405915022e-05
  40    3.7411100585686e-05
  41    -0.00041684315435437
  42    0.00015424489092325
  43    1.8808482699501e-05
  44    -1.2080285310225e-05
  45    1.2950662413886e-07
  46    1.536224809539e-05
  47    1.201721528162e-05
  48       1.0010305532602
  49    0.00076272606743633
  50    -0.0058497606201887
  51    -0.00072737029682033
  52    -0.0019664564060032
  53    0.0011907413566097
  54    0.00028787898705211
  55    0.00052409913487027
  56    -0.00025687382301421
  57    1.4009854191482e-05
  58       4.400368995e-05
  59    8.4322183839623e-05
  60    7.0832137095854e-05
  61    -6.0826855607648e-05
  62    5.8777237033997e-06
  63    9.3470851459452e-06
  64    8.2386810326539e-05
  65    2.1350000621711e-05
  66    -1.0606640915109e-05
  67    -2.1372306726332e-05
  68    -0.00011445572530058
  69    1.6206371545263e-07
  70    4.2078310602507e-05
  71    4.1079791705457e-06
  72    -8.0602501539872e-06
  73    -3.1416466286303e-06
  74    -2.496411260276e-05
  75    -5.4880410591734e-06
  76    6.5320116684026e-05
  77    -0.00017300000909974
  78    -3.455458490923e-05
  79    -1.4620509817163e-06
  80    -1.055529098454e-05
  81    -2.8969028924944e-05
  82    -5.2607900031574e-05
  83    0.00014166688146084
  84    -1.9605073744566e-05
  85    7.7210721944963e-06
  86    2.5320984317749e-06
  87    0.00016381393661853
  88    1.8091692902299e-05
  89    -4.2483418917167e-05
  90    5.3236293685869e-06
  91    1.7057829817712e-06
  92    -4.2254073512831e-06
  93    3.7295392063774e-06
  94    -2.9396492550874e-06
 Sym= A
 Ene=               4
 Spin= Alpha
 Occup=    1.00000
   1    -0.00017457924656942
   2    0.00030500039997906
   3    0.0032053238938269
   4    -0.00042682075174564
   5    0.00013608198059823
   6    -0.00094573179495814
   7    6.3784490482228e-05
   8    -0.00011573822471682
   9    -0.0016566767064808
  10    0.00011239432078091
  11    9.7616346725993e-05
  12    -4.2853390976814e-05
  13    1.2106347429435e-05
  14    9.056544674549e-07
  15    2.9117802793104e-05
  16    2.4619836151135e-05
  17    -0.0011175053787445
  18    0.00017267056935084
  19    -1.0163210778275e-05
  20    -2.275727594049e-06
  21    0.00029311533424122
  22    6.1288978355091e-05
  23    0.00034413148489597
  24    6.8438830167878e-05
  25    -1.4853477660121e-05
  26    -1.7018081001978e-05
  27    -3.4704543825558e-05
  28    -3.7630103407887e-06
  29    1.4889908749395e-05
  30    0.00012349764487652
  31    -2.2149077419178e-05
  32    -1.8080026086239e-07
  33    -1.9897767431834e-05
  34    1.5738381711103e-05
  35    3.0992695536771e-05
  36    5.7242559485024e-05
  37    -4.589868410371e-05
  38    -1.1507371773953e-05
  39    -1.3361431007276e-06
  40    0.00018056306338254
  41    4.4039243075208e-05
  42    1.8425746607939e-05
  43    1.4466521845798e-05
  44    -2.1472702955466e-06
  45    2.8428251831017e-07
  46    -1.9514642612222e-05
  47    1.2977761625486e-05
  48    5.7770119119762e-06
  49    9.6514619104948e-06
  50    5.4606330668597e-05
  51    -2.0241789056965e-05
  52    2.5144531366909e-05
  53    9.4105607669609e-06
  54    0.00011786185472664
  55    -6.8629265088923e-05
  56    -1.7169787233295e-05
  57    1.2517929191686e-05
  58    -8.7721377222382e-07
  59    -6.65611196419e-07
  60    -1.6867778493038e-05
  61    -1.240828826368e-05
  62       1.0010285372064
  63    0.00083320169302574
  64    -0.0057382224199485
  65    0.00075767120584183
  66    -0.00038037808215839
  67    0.0021948177604005
  68    -0.00026082916205164
  69    0.00013958088067208
  70    -0.00061296135273541
  71    -0.00010778298216503
  72    -7.5817276048618e-05
  73    3.2215329655869e-05
  74    -1.4470585230583e-06
  75    7.1005514299889e-06
  76    -0.00019482244383037
  77    -5.1784224027112e-05
  78    2.663508231798e-06
  79    -1.650064712282e-05
  80    0.00016004534782499
  81    9.7474424629476e-05
  82    0.00016195409700247
  83    -0.00068766399337955
  84    -1.9173768243553e-06
  85    -5.7431771356331e-05
  86    1.9327721671234e-06
  87    -4.7379516353379e-05
  88    -0.00014643733303666
  89    0.00040994521838033
  90    -2.9186637787847e-06
  91    1.6744662640537e-05
  92    2.4551836547686e-05
  93    -1.0848586337454e-07
  94    6.5441676512741e-07
 Sym= A
 Ene=               5
 Spin= Alpha
 Occup=    1.00000
   1    2.9177271097206e-05
   2    2.7503632920073e-05
   3    -0.0011072091083922
   4    -0.00016700055216114
   5    5.4192746074153e-06
   6    -9.2501024210615e-06
   7    -0.00028696775622437
   8    0.00022676869137879
   9    0.00026997047168298
  10    1.1423614597818e-05
  11    1.2775198008297e-05
  12    3.8005917824539e-05
  13    -6.7761026838648e-05
  14    9.5540403710056e-06
  15    -0.00017577170531987
  16    0.00029225141581716
  17    0.0031995854274277
  18    0.00042160460089696
  19    -0.00079768250648974
  20    -0.00049485912356961
  21    -5.9314784259654e-05
  22    -0.0011955010906201
  23    -0.0011538461753304
  24    -3.1746587815908e-05
  25    -6.453960945059e-05
  26    9.1439380538456e-05
  27    -6.7876555776718e-05
  28    -7.6765959703304e-05
  29    -0.00020078423834184
  30    -5.409759341304e-05
  31    -3.1891500293203e-06
  32    0.00013401841894705
  33    9.0621793319069e-05
  34        1.001028692209
  35    0.00090092056038059
  36    -0.0056593435458058
  37    -0.00067753489424657
  38    0.0018832651417973
  39    0.0011352393399695
  40    0.00031601662535301
  41    -0.00058793390832335
  42    -0.0002754688664324
  43    1.6243669775979e-05
  44    4.4088618312676e-05
  45    -8.7377201353751e-05
  46    6.9873197678753e-05
  47    6.4425537824251e-05
  48    9.7514421074412e-05
  49    0.00016228842983491
  50    -0.00068714127460925
  51    1.5365052019805e-06
  52    3.765080695925e-05
  53    -4.2789601272021e-05
  54    4.6891087630654e-05
  55    0.00040751721441226
  56    0.00015139286966694
  57    2.0743711867402e-05
  58    -1.1374974459428e-05
  59    1.7184513049603e-06
  60    1.3740698611614e-05
  61    -1.2472984034634e-05
  62    1.5803907838784e-05
  63    3.1181421672458e-05
  64    5.7092404469169e-05
  65    4.607915236237e-05
  66    5.7753473726801e-06
  67    -9.4658987495753e-06
  68    -0.00018160333474431
  69    -1.4726850425149e-05
  70    4.5667739216452e-05
  71    1.1910261125834e-05
  72    -8.4647273446246e-06
  73    2.7604912360845e-06
  74    -2.1007431925603e-05
  75    1.005301254561e-05
  76    1.2859416345012e-05
  77    0.00012010950160747
  78    2.247439474167e-05
  79    -1.5135678130953e-05
  80    -1.2965349378206e-05
  81    5.7734373278176e-06
  82    9.8224825056681e-06
  83    5.5012309397702e-05
  84    2.0259651408738e-05
  85    -8.599579599243e-06
  86    2.4853041267122e-05
  87    -0.00011864417521256
  88    3.1046460712399e-05
  89    -6.4220502419267e-05
  90    9.5111719497518e-06
  91    1.0106237235513e-05
  92    2.2309230294878e-06
  93    -1.8626154893626e-05
  94    -7.2150714018868e-06
 Sym= A
 Ene=               6
 Spin= Alpha
 Occup=    1.00000
   1    -0.0011767130738481
   2    -0.015096113753352
   3     -0.01243307173337
   4     0.016076095570408
   5     0.035334056731562
   6    -0.010859783423161
   7     0.017064498484247
   8     0.044934301522496
   9    -0.012210266350094
  10    -3.6776023935162e-05
  11    -0.018352633705564
  12    -0.035089244046464
  13    -0.015363907467873
  14    -0.0037087314999615
  15     -0.00170396774209
  16    -0.013471741555007
  17    -0.017316109587235
  18     0.025178572321972
  19    -0.0030103953812757
  20    0.0040735276127308
  21     0.017093863586593
  22    -0.010045083111863
  23    -0.0063829931706169
  24    0.0011683906771285
  25    -0.00043568333877896
  26    0.00040437693331784
  27    0.00050899311058747
  28    7.882455895811e-05
  29     0.010510782420188
  30     0.010919555842353
  31    0.0013855358901086
  32     0.000110517539682
  33    -0.00078123780645857
  34    0.00076110552479164
  35    0.0020141614107551
  36    -0.0051492666245123
  37    -0.0050203817587563
  38    -0.00032449316039476
  39    0.00012768625302674
  40    -0.0064668066763526
  41    -0.0022055063026335
  42    0.00051455838229298
  43    0.00023780504747384
  44    0.00010518766950555
  45    9.2954464057673e-05
  46    -0.00012891693432897
  47    0.0002161841712708
  48    -0.0012900245861482
  49    -0.0062201582195428
  50    -0.0011485019924376
  51     0.010397417091933
  52    0.0035343285173195
  53    0.0019523154500837
  54    0.0019090056183039
  55    0.0041089833700153
  56    -0.00025049932223565
  57    -0.00013193798953564
  58    0.00084836576951631
  59    0.00019445703041349
  60    0.00083420093539259
  61    -0.00017512849579881
  62    -0.0003331929598085
  63    -0.0031255024762885
  64    -0.0012691097997448
  65      0.32683247284362
  66      0.57769056164645
  67    -0.023912639397006
  68      0.22684215218982
  69      0.39749899590943
  70    -0.014732728444334
  71    -0.0011465830306308
  72    0.0069145470394395
  73     0.012319953750366
  74    0.0040453399039866
  75    0.0037180903321616
  76    -0.021469237153947
  77    -0.016947459701497
  78    0.00062484665079075
  79    -0.00091461850429651
  80    0.00056418925265135
  81    -0.0014695213672407
  82      0.01430065215438
  83     0.048868886170239
  84    0.0061172423018581
  85      0.03737098435076
  86    -0.026691561206607
  87    0.0054988862193873
  88     0.033894041552056
  89    -0.025358872691568
  90     -0.00051597263621
  91    -0.00073480790493868
  92    -0.00028439846129012
  93    -1.0218011343381e-05
  94    -0.0001791826537922
 Sym= A
 Ene=               7
 Spin= Alpha
 Occup=    1.00000
   1    -0.0027075264616364
   2    -0.0014763653347796
   3       0.0244221422836
   4    0.00098153026279859
   5    -0.0018801643091389
   6    -0.00077025561180094
   7     0.039166119119997
   8    0.0092270430656487
   9    -0.021038273095847
  10    -0.0067141822125767
  11     0.013093030193733
  12     0.011608011791138
  13    -0.028583317812308
  14    -0.025317440496501
  15    -0.0025709148476735
  16     -0.03154942823968
  17    -0.068325186050974
  18     0.045551520435995
  19    0.0025121827205737
  20    0.0014335695432192
  21     0.041381654825812
  22    -0.018196503028161
  23     0.013772854404811
  24    -0.00032626820437796
  25    -0.0015158259627507
  26    -0.0016360573542867
  27    -0.0022773479092459
  28    -0.0016400752349445
  29    -0.0028276011221163
  30    0.0021296391352115
  31    0.00064842216728386
  32    0.0013345180706479
  33    4.9777994126085e-05
  34    -0.0010836229216435
  35    -0.004752283907038
  36    0.00024732724411355
  37    0.0071358302319277
  38     0.004258900820881
  39    -0.0051579111438534
  40    -0.0037477510999127
  41    0.0018252570002737
  42    -0.0049733046607619
  43    -0.00030660756968243
  44    -0.00024316460056833
  45    -0.00047534577480992
  46    0.00064619884280078
  47    0.0011317990615226
  48    -0.00088213822266228
  49    0.0020596925549653
  50     0.016567219997412
  51    -0.0084662033205345
  52    -0.0072694624405729
  53    0.0037504680546596
  54    -0.0085337089160262
  55    -0.0079718248205762
  56      0.00450107395062
  57    0.00024139477867873
  58    0.00027961255581128
  59    -0.00019758542346475
  60    -0.00053105938306021
  61    -0.00068178479510636
  62    0.00065528402450872
  63    2.2281403090941e-05
  64    -0.0091081183791631
  65    -0.0036807811219599
  66     0.002287165135337
  67    -0.00071344531815052
  68    -0.0056479846982739
  69    -0.00040602261627758
  70    -0.0018350076718624
  71    -1.3102377174289e-05
  72    0.00011044523416883
  73    0.00021785773916106
  74    -0.00068338210152997
  75    -0.0004114806371477
  76     0.050956176907687
  77     0.048484429674599
  78    -0.0019290449809747
  79    -0.0025410470579401
  80    0.0021487978602665
  81    -0.0013687936027872
  82    -0.0044800683409306
  83    0.0079921698215424
  84      0.54745949595816
  85     -0.27894877705301
  86     -0.26623755224135
  87      0.38002820887782
  88     -0.19022936209704
  89     -0.18478578765087
  90    0.0024986834557313
  91    -0.0052797834054096
  92    -0.003443721955937
  93    0.0091985552297224
  94    0.0085455852849052
 Sym= A
 Ene=               8
 Spin= Alpha
 Occup=    1.00000
   1    -0.0021895261866399
   2    -0.0014739174773291
   3     0.016230612287749
   4    0.00038765153556988
   5    -0.0018681511992504
   6    -0.00077913294163669
   7     0.035026220430555
   8     -0.01890047048038
   9    0.0099669750836043
  10     0.023903659713055
  11    -0.027110646390826
  12     0.018490792083238
  13    -0.011381963219292
  14    0.0089609283088866
  15    -0.0026087270470623
  16    -0.027622720361991
  17    -0.064848429250766
  18     0.049139850915632
  19    0.0027572045618838
  20    0.0068908329515577
  21     0.038105543038827
  22    0.0086080702399372
  23    -0.025116950786627
  24    0.0025575279894565
  25    -0.0013450257307112
  26    5.5350160303382e-05
  27    -0.00064096492623948
  28    -0.00069492015698456
  29     0.017138772022632
  30     0.026444346281223
  31    0.0018769179872652
  32    -0.00012475829086111