[Molden Format]
made by pyscf v[2.0.1]
[Atoms] (AU)
C   1   6     0.00000000000000     0.00000000000000     0.00000000000000
C   2   6     2.85272299873892     0.00000000000000     0.00000000000000
H   3   1     3.62066923017674     0.00000000000000     1.90331545357504
F   4   9     3.65943188126013    -2.04308229183900    -1.24074875274501
F   5   9     3.65943188126013     2.04308229183900    -1.24074875274501
F   6   9    -0.80670888252121     2.26373667011121    -0.76755391149953
H   7   1    -0.76794623143782    -1.45802422671364    -1.22342759088295
F   8   9    -0.80670888252121    -0.36279929541697     2.36262976149657
[GTO]
1 0
 s    8 1.00
                  6665  0.00069158396281299
                  1000  0.0053257961529341
                   228   0.027060721042034
                 64.71    0.10165684614077
                 21.06     0.2745748236174
                 7.495    0.44829431892377
                 2.797    0.28490261071525
                0.5215   0.015194859206082
 s    8 1.00
                  6665  -0.00029326965268655
                  1000  -0.0023180354739745
                   228  -0.011499786038565
                 64.71  -0.046826727009787
                 21.06   -0.12846616875047
                 7.495   -0.30126627246289
                 2.797   -0.25563070233011
                0.5215      1.093793361012
 s    1 1.00
                0.1596                   1
 p    3 1.00
                 9.439   0.056979251590039
                 2.002    0.31320721150073
                0.5456    0.76037674173753
 p    1 1.00
                0.1517                   1
 d    1 1.00
                  0.55                   1

2 0
 s    8 1.00
                  6665  0.00069158396281299
                  1000  0.0053257961529341
                   228   0.027060721042034
                 64.71    0.10165684614077
                 21.06     0.2745748236174
                 7.495    0.44829431892377
                 2.797    0.28490261071525
                0.5215   0.015194859206082
 s    8 1.00
                  6665  -0.00029326965268655
                  1000  -0.0023180354739745
                   228  -0.011499786038565
                 64.71  -0.046826727009787
                 21.06   -0.12846616875047
                 7.495   -0.30126627246289
                 2.797   -0.25563070233011
                0.5215      1.093793361012
 s    1 1.00
                0.1596                   1
 p    3 1.00
                 9.439   0.056979251590039
                 2.002    0.31320721150073
                0.5456    0.76037674173753
 p    1 1.00
                0.1517                   1
 d    1 1.00
                  0.55                   1

3 0
 s    3 1.00
                 13.01   0.033498726389998
                 1.962    0.23480080117413
                0.4446     0.8136829578829
 s    1 1.00
                 0.122                   1
 p    1 1.00
                 0.727                   1

4 0
 s    8 1.00
                 14710  0.00072067370873197
                  2207  0.0055504869689163
                 502.8   0.028254207662589
                 142.6    0.10639582836653
                 46.47    0.28668420124307
                  16.7    0.44843796582416
                 6.356    0.26464118141135
                 1.316   0.015326060993048
 s    8 1.00
                 14710  -0.00032119389049893
                  2207  -0.0025461915683188
                 502.8  -0.012643359507821
                 142.6   -0.05195749170489
                 46.47   -0.14344713812646
                  16.7   -0.33243762329603
                 6.356   -0.21865906750347
                 1.316     1.0955904138622
 s    1 1.00
                0.3897                   1
 p    3 1.00
                 22.67   0.064834021493887
                 4.977    0.34053535983101
                 1.347    0.73464640679382
 p    1 1.00
                0.3471                   1
 d    1 1.00
                  1.64                   1

5 0
 s    8 1.00
                 14710  0.00072067370873197
                  2207  0.0055504869689163
                 502.8   0.028254207662589
                 142.6    0.10639582836653
                 46.47    0.28668420124307
                  16.7    0.44843796582416
                 6.356    0.26464118141135
                 1.316   0.015326060993048
 s    8 1.00
                 14710  -0.00032119389049893
                  2207  -0.0025461915683188
                 502.8  -0.012643359507821
                 142.6   -0.05195749170489
                 46.47   -0.14344713812646
                  16.7   -0.33243762329603
                 6.356   -0.21865906750347
                 1.316     1.0955904138622
 s    1 1.00
                0.3897                   1
 p    3 1.00
                 22.67   0.064834021493887
                 4.977    0.34053535983101
                 1.347    0.73464640679382
 p    1 1.00
                0.3471                   1
 d    1 1.00
                  1.64                   1

6 0
 s    8 1.00
                 14710  0.00072067370873197
                  2207  0.0055504869689163
                 502.8   0.028254207662589
                 142.6    0.10639582836653
                 46.47    0.28668420124307
                  16.7    0.44843796582416
                 6.356    0.26464118141135
                 1.316   0.015326060993048
 s    8 1.00
                 14710  -0.00032119389049893
                  2207  -0.0025461915683188
                 502.8  -0.012643359507821
                 142.6   -0.05195749170489
                 46.47   -0.14344713812646
                  16.7   -0.33243762329603
                 6.356   -0.21865906750347
                 1.316     1.0955904138622
 s    1 1.00
                0.3897                   1
 p    3 1.00
                 22.67   0.064834021493887
                 4.977    0.34053535983101
                 1.347    0.73464640679382
 p    1 1.00
                0.3471                   1
 d    1 1.00
                  1.64                   1

7 0
 s    3 1.00
                 13.01   0.033498726389998
                 1.962    0.23480080117413
                0.4446     0.8136829578829
 s    1 1.00
                 0.122                   1
 p    1 1.00
                 0.727                   1

8 0
 s    8 1.00
                 14710  0.00072067370873197
                  2207  0.0055504869689163
                 502.8   0.028254207662589
                 142.6    0.10639582836653
                 46.47    0.28668420124307
                  16.7    0.44843796582416
                 6.356    0.26464118141135
                 1.316   0.015326060993048
 s    8 1.00
                 14710  -0.00032119389049893
                  2207  -0.0025461915683188
                 502.8  -0.012643359507821
                 142.6   -0.05195749170489
                 46.47   -0.14344713812646
                  16.7   -0.33243762329603
                 6.356   -0.21865906750347
                 1.316     1.0955904138622
 s    1 1.00
                0.3897                   1
 p    3 1.00
                 22.67   0.064834021493887
                 4.977    0.34053535983101
                 1.347    0.73464640679382
 p    1 1.00
                0.3471                   1
 d    1 1.00
                  1.64                   1

[5d]
[7f]
[9g]

[MO]
 Sym= A
 Ene=               0
 Spin= Alpha
 Occup=    1.00000
   1       1.0019136801104
   2    0.0042334034345701
   3    -0.007466553941708
   4    -0.00056583537705395
   5    0.00082214621645334
   6    0.00076324536844637
   7    -0.0015833581222678
   8    0.00047320554472409
   9    0.00052578624378989
  10    0.0001683017002824
  11    -7.2534977212513e-05
  12    -0.00023263268745234
  13    -0.00018807934818582
  14    -8.7093627664853e-05
  15    -0.00022803851611325
  16    4.1626174370381e-05
  17    0.0032630090652419
  18    -0.000471268528234
  19    -1.7316927612496e-05
  20    3.8015061300572e-06
  21    -0.0015954883399448
  22    -0.00011201860123119
  23    -0.00041696593924574
  24    -5.7138318207896e-05
  25    5.9654401045951e-05
  26    1.4901492829014e-05
  27    5.8486852136261e-05
  28    9.0540974420078e-05
  29    -3.6319906253386e-05
  30    0.00041600034952641
  31    -9.6798517032298e-05
  32    -4.4666695103923e-06
  33    -3.5089904628625e-05
  34    1.3616360407972e-05
  35    2.9839992219344e-05
  36    -0.00027540995147886
  37    2.9408484248741e-06
  38    -4.8658797486252e-07
  39    -1.2918393639157e-05
  40    1.153416768238e-06
  41    -5.0979739991326e-05
  42    3.0640131943879e-05
  43    -1.488644357884e-05
  44    -8.1936018588235e-06
  45    1.5645830330521e-05
  46    1.6703323437859e-05
  47    -7.5310755999778e-06
  48    -9.0912222071478e-06
  49    -4.2741899816651e-06
  50    -0.00013941137224599
  51    -1.8973592020336e-05
  52    -1.4024799581575e-05
  53    -2.9234713429969e-06
  54    -8.2354011353556e-05
  55    9.035092613921e-05
  56    4.8626107323087e-06
  57    -2.0288335192011e-05
  58    -9.8165506953736e-06
  59    -5.8413731206628e-06
  60    2.8704423027042e-05
  61    1.4671065744257e-05
  62    0.00014309345317166
  63    0.00065128024085286
  64    -6.51074127296e-05
  65    8.0516526434863e-05
  66    -0.00030667337347735
  67    0.00014254909289334
  68    -0.00014973111893088
  69    0.00078365699338734
  70    -0.00032228247307318
  71    5.7530293036819e-05
  72    -3.3662317831361e-05
  73    9.5505279666682e-05
  74    9.1201601545503e-05
  75    6.6999040425624e-05
  76    0.00096200684510729
  77    0.0015501806899304
  78    0.00021954602156979
  79    6.3908451103688e-05
  80    3.8346461369054e-05
  81    0.00016217158108923
  82    0.00068946066582993
  83    -0.00018927830172603
  84    7.3980737814195e-05
  85    8.3723766661659e-05
  86    -0.00032345270478819
  87    -0.00015082933169055
  88    -0.00017200913771955
  89    0.00086729836980649
  90    -0.00014019106445094
  91    7.6816842731928e-05
  92    5.7654194297005e-05
  93    -1.7625271126058e-05
  94    -2.3196375270922e-05
 Sym= A
 Ene=               1
 Spin= Alpha
 Occup=    1.00000
   1    -0.00022803269559624
   2    4.1678322301534e-05
   3    0.0032630561712296
   4    0.00047134925535139
   5    -1.4047702964474e-05
   6    1.0816709485598e-05
   7    0.0015955147402196
   8    0.00024740781935118
   9    0.00035383165889637
  10    -2.386116467826e-05
  11    0.00010770187237247
  12    -1.7344350006881e-05
  13    7.7707274029661e-05
  14    -1.2500115822767e-05
  15       1.0019136819624
  16    0.0042334052731327
  17    -0.0074665529225751
  18    0.0005657302742126
  19    -5.622293839826e-05
  20    -0.001120463864114
  21    0.0015833322650777
  22    -9.8605858005186e-05
  23    -0.00070048224848961
  24    -8.2674259602886e-05
  25    -0.00011334271200618
  26    1.0533976589978e-05
  27    -0.00033297005933772
  28    4.1641515787066e-07
  29    0.00096192360402765
  30    0.0015501462545428
  31    -0.00021954506146315
  32    1.1704348577416e-05
  33    -7.3599477866352e-05
  34    0.00016217815330576
  35    0.00068945710747378
  36    -0.00018928398870187
  37    -7.3966054796176e-05
  38    0.00030159711818431
  39    0.00014379669072023
  40    0.00015084516078177
  41    -0.00077495389344853
  42    -0.00042570422383913
  43    4.133826506929e-05
  44    3.1606897097725e-05
  45    -0.00011823209090472
  46    8.7181609353992e-05
  47    7.3754493602111e-05
  48    0.00014309729913718
  49    0.00065126828010122
  50    -6.5120729023462e-05
  51    -8.0512062929276e-05
  52    -0.00030629949897383
  53    0.00014331502454997
  54    0.00014974000109128
  55    0.00075062471688051
  56    -0.0003931401395182
  57    4.1994013284098e-05
  58    2.9686007344074e-05
  59    0.00011055901301914
  60    8.2233013928999e-05
  61    -6.8852199796439e-05
  62    -9.0917080511737e-06
  63    -4.2776110501775e-06
  64    -0.00013941956593219
  65    1.896669696954e-05
  66    -6.7672191674149e-06
  67    1.2620315146146e-05
  68    8.2343811962516e-05
  69    5.4357835422797e-05
  70    -7.2339841471529e-05
  71    -2.1999633942658e-05
  72    4.9289982425672e-06
  73    -4.1833344800067e-06
  74    2.7717027897141e-05
  75    -1.6951158940452e-05
  76    -3.6320373065555e-05
  77    0.0004159842163903
  78    9.6800309033519e-05
  79    2.400995305164e-05
  80    2.5977332573221e-05
  81    1.3615938533982e-05
  82    2.9819669814561e-05
  83    -0.00027543796267744
  84    -2.9475329528352e-06
  85    9.5802614540986e-06
  86    8.6744954385016e-06
  87    -1.1628450545212e-06
  88    -5.6242880173261e-05
  89    1.935766278472e-05
  90    3.072080172025e-06
  91    -1.1036768677848e-05
  92    -1.7544311377837e-06
  93    2.7072016850682e-05
  94    -1.4357227946115e-06
 Sym= A
 Ene=               2
 Spin= Alpha
 Occup=    1.00000
   1    7.8720199074868e-05
   2    9.9569045068895e-05
   3    -0.0017677558374673
   4    -0.0001132806004694
   5    2.926970573789e-06
   6    -8.7118361065227e-07
   7    -0.00085184039141426
   8    -0.00043303726324297
   9    0.00024831079979325
  10    -1.0252128233658e-05
  11    1.8457445727148e-05
  12    -4.7901704605127e-05
  13    -5.8027336064067e-05
  14    -2.1532082645295e-05
  15    -0.0001967849896879
  16    0.00031083571957784
  17    0.0039209531251134
  18    0.00041677562525891
  19    0.00087663996821469
  20    -0.00054791774480435
  21    -0.00030796429307624
  22    0.0012095202027689
  23    -0.0011215106342223
  24    -3.6520448119486e-05
  25    -6.0629958570133e-05
  26    -8.5582672306751e-05
  27    -5.9405572907517e-05
  28    5.8048897403586e-05
  29    -0.00024919076183211
  30    -8.9440404647128e-05
  31    -4.3650821279954e-06
  32    -0.00012909020290228
  33    9.9608060081967e-05
  34    0.00010300080892278
  35    0.00017171047627661
  36    -0.00074246115298116
  37    2.2366628862111e-06
  38    -3.9811442824808e-05
  39    -4.319635056977e-05
  40    5.0506545457575e-05
  41    -0.00043628454864866
  42    0.00013299429706822
  43    1.7375041951762e-05
  44    -1.1185399696966e-05
  45    -3.6166399252267e-06
  46    1.764834462992e-05
  47    1.2494650375352e-05
  48       1.0010274658654
  49    0.00053003129801682
  50    -0.0061114896383325
  51    -0.00074582451369875
  52    -0.0021019710667659
  53    0.0012989380047956
  54    0.00024470585739677
  55    0.00045620518643304
  56    -0.00016816124518711
  57    1.0741268762157e-05
  58    4.0678684602911e-05
  59    7.8528804015827e-05
  60    7.1408551438777e-05
  61    -6.0772756481077e-05
  62    -5.8782590138784e-05
  63    -0.00011772390357248
  64    0.00035782840096658
  65    -2.7337638884687e-05
  66    3.3849416080094e-05
  67    -2.0887374318687e-07
  68    6.6162168461493e-05
  69    -9.1304643310407e-05
  70    2.678686069761e-06
  71    1.2866611112126e-05
  72    2.1693318407612e-06
  73    5.6025405390112e-06
  74    -8.6226793418936e-06
  75    7.0698674198182e-07
  76    0.00012779051482438
  77    -9.9617474233304e-05
  78    2.0986243240956e-05
  79    4.5509460654664e-05
  80    -2.9907200334839e-05
  81    -1.8534238175129e-05
  82    -2.8466333882022e-05
  83    0.00013779516819752
  84    -7.3280982101841e-06
  85    -8.2196844324001e-07
  86    -1.5858984338576e-05
  87    0.00015594568111824
  88    5.7127570737211e-05
  89    -4.0156677299068e-05
  90    1.804334090984e-06
  91    -5.0557415346923e-06
  92    -1.4541510506644e-05
  93    -3.7573375467376e-06
  94    7.6189585260451e-07
 Sym= A
 Ene=               3
 Spin= Alpha
 Occup=    1.00000
   1    -0.00019604764317347
   2    0.00031610005032528
   3     0.003921545520075
   4    -0.00041913566286629
   5    0.00098980121182687
   6    -0.0003215062065753
   7    0.0003075871025354
   8     0.001636501883614
   9    -0.00020651201004111
  10    -4.7399434194716e-05
  11    5.6877183428992e-06
  12    -7.5521462027539e-05
  13    -6.5695726506086e-05
  14    -8.4099601766761e-05
  15    7.8774168529233e-05
  16    9.9740246018269e-05
  17     -0.00176787114529
  18    0.00011316294419577
  19    3.0070796574545e-06
  20    -1.7680616161039e-06
  21    0.00085171907600827
  22    -0.00046822517049795
  23    0.00017240535516879
  24    -1.2603128889799e-05
  25    -4.5239139304864e-06
  26    -4.5590314943328e-05
  27    -5.9281062376856e-05
  28    2.7608035626975e-05
  29    0.00012781424920725
  30    -9.9508072576226e-05
  31    -2.0967636038523e-05
  32    5.2167667222075e-05
  33    -1.5617007676209e-05
  34    -1.8533173677874e-05
  35    -2.8402683244455e-05
  36    0.00013809842017759
  37    7.1776795444341e-06
  38    1.1663920127262e-05
  39    1.0880577411004e-05
  40    -0.00015603032840228
  41    6.7525314851748e-05
  42    -1.7933255602787e-05
  43    -1.0272334739712e-05
  44    -2.657999402262e-06
  45    -2.8448850876072e-06
  46    -1.0738671948074e-05
  47    -4.3577281105558e-06
  48    -5.8757449459292e-05
  49    -0.00011759979833589
  50    0.00035785951765479
  51    2.701109545837e-05
  52    2.2212563836867e-05
  53    -2.5881883921821e-05
  54    -6.6189788246776e-05
  55    -6.0779716641532e-05
  56    6.8162281422533e-05
  57    1.0711351075463e-05
  58    1.9292923919326e-06
  59    7.6875840303721e-06
  60    -9.8914792373503e-06
  61    1.2342506064191e-06
  62       1.0010274137584
  63    0.00050167799600738
  64    -0.0061450411625005
  65    0.00075000395231999
  66    -0.0023672870642687
  67    0.00077962837311539
  68    -0.00024196532237715
  69    0.00040797414623578
  70    -0.00023849292146074
  71    3.1721328795633e-05
  72    -2.0343979049232e-05
  73    5.770309775918e-05
  74    8.3242613159108e-05
  75    6.9962714788679e-05
  76    -0.00024948516827199
  77    -9.1005766331817e-05
  78    4.2468006532646e-06
  79    -0.00015907018824772
  80    3.4804523185656e-05
  81    0.00010294607146439
  82    0.00017152951610361
  83    -0.00074219890453956
  84    -2.2542356746723e-06
  85    7.4016004191658e-06
  86    5.8502424913207e-05
  87    -5.0417972147973e-05
  88    -0.00038246565292471
  89    0.00024886966205771
  90    -9.9246275542071e-06
  91    2.3971599233441e-06
  92    2.2781310269039e-05
  93    1.8424812300832e-06
  94    -1.6570726073954e-05
 Sym= A
 Ene=               4
 Spin= Alpha
 Occup=    1.00000
   1    -0.00018121599700569
   2    0.00030579907386717
   3    0.0036044958348397
   4    -0.00040156609415082
   5    -0.00013552176842556
   6    0.00096660475410844
   7    0.00020897584637277
   8     9.31898615489e-05
   9    0.0015845817486599
  10    0.00010908788969164
  11    -7.9018573872397e-05
  12    -3.779702251816e-05
  13    1.3935346261371e-05
  14    8.7934420794845e-06
  15    8.5830049012085e-05
  16    0.00012247116615944
  17    -0.0016128666636733
  18    0.00014344263300156
  19    -2.2659232454958e-06
  20    4.6983042194832e-05
  21    0.00065855517350236
  22    -9.9683298068915e-05
  23    -0.00040222081814748
  24    9.8548751969079e-05
  25    4.6278369962421e-05
  26    -1.9649046403675e-05
  27    -8.6327856420257e-06
  28    1.1936690842078e-05
  29    8.2503967477331e-05
  30    0.00010856051729803
  31    3.6670832533038e-05
  32    1.6051021694255e-05
  33    9.0300663423429e-06
  34    1.1810527987079e-06
  35    9.6605556774967e-06
  36    6.6337165970222e-05
  37    -1.0938797658451e-05
  38    1.0778955305111e-05
  39    1.1435135600078e-05
  40    -6.6430935554534e-05
  41    3.7101514641344e-05
  42    2.3854529497216e-05
  43    8.8711499425687e-06
  44    2.1930701306091e-06
  45    1.1425371691001e-05
  46    -5.2508623537953e-06
  47    -3.4191116959692e-06
  48    -1.9424147451865e-05
  49    -3.2247032507732e-05
  50    0.00016565970590332
  51    -3.3777458272068e-06
  52    -1.0349123309536e-05
  53    9.6274801273169e-07
  54    -8.307097034353e-05
  55    -2.946553549149e-05
  56    6.8465914735033e-05
  57    1.4510920332677e-05
  58    6.7557721724071e-07
  59      -9.206285513e-06
  60    -3.6325526494951e-07
  61    1.435034996269e-06
  62    9.9104073816161e-05
  63    0.0001659861007178
  64    -0.00070292877520145
  65    -1.9048635422324e-07
  66    5.4896598126655e-05
  67    -2.1408272705301e-06
  68    -4.6814514849223e-05
  69    0.00015892870753387
  70    -0.00039972785211003
  71    -3.5499453630566e-06
  72    -1.6466105886649e-05
  73    2.2916282938438e-05
  74    3.0568143162033e-06
  75    -1.2579297651224e-06
  76    -0.00023849694403929
  77    -8.1849593019604e-05
  78    4.2399626554225e-06
  79    3.4015612749228e-06
  80    -0.00016319371273608
  81       1.0010210188525
  82    0.00073628748431164
  83    -0.0057968263727609
  84    0.00078218942331132
  85    0.00035549213948917
  86    -0.0022500825232939
  87    -0.00023373037882234
  88    -0.00013901761495911
  89    0.00053849342538383
  90    -0.00010538630232805
  91    6.9327295981145e-05
  92    3.0336537855639e-05
  93    4.9323875518359e-06
  94    -5.1099499313883e-06
 Sym= A
 Ene=               5
 Spin= Alpha
 Occup=    1.00000
   1    8.5847674020822e-05
   2    0.00012192485215505
   3    -0.0016144775908868
   4    -0.00014377401902365
   5    -3.6296392037702e-05
   6    -2.7597914770781e-05
   7    -0.00065653965021394
   8    0.00024560404171271
   9    0.00033707477800184
  10    -4.9783566487042e-07
  11    3.930283786487e-05
  12    7.6430880070881e-05
  13    -6.5946009137898e-05
  14    2.8289638899026e-05
  15    -0.00018263983712369
  16    0.00029503546360057
  17    0.0036013059917765
  18    0.00039673156181978
  19    -0.00081549397612542
  20    -0.00050997119493077
  21    -0.0002087957821989
  22    -0.0011534923752986
  23    -0.0010912693730654
  24    -2.5918949430694e-05
  25    -4.3653511023685e-05
  26    9.266553642325e-05
  27    -6.415659875897e-05
  28    -6.5334716423301e-05
  29    -0.00023791268346164
  30    -7.8774815057863e-05
  31    -4.4833385465032e-06
  32    0.0001276132925797
  33    0.00010256655395625
  34       1.0010210146631
  35    0.0007962671720912
  36    -0.0057259441344335
  37    -0.00077632908879698
  38    0.0019142155790111
  39    0.0011478372958886
  40    0.00023721967664285
  41    -0.00052733715877965
  42    -0.0002571283857766
  43    1.0829972626662e-05
  44    4.0952258216316e-05
  45    -8.3128720927846e-05
  46    7.2651786962182e-05
  47    5.684177550959e-05
  48    9.9180024845202e-05
  49    0.00016639157515047
  50    -0.00070297740215894
  51    7.6803498589065e-08
  52    3.6023191194453e-05
  53    -4.036065187479e-05
  54    4.6889881484188e-05
  55    0.00040756556186199
  56    0.0001353570682931
  57    1.7710853937447e-05
  58    -1.1612072835164e-05
  59    2.4773390259426e-06
  60    1.5414344446506e-05
  61    -1.1810194856209e-05
  62    -1.945551332539e-05
  63    -3.2304638665307e-05
  64    0.00016573627227477
  65    3.2620711451473e-06
  66    -7.4824292805396e-06
  67    7.1888884601286e-06
  68    8.271013962689e-05
  69    -7.1765130194517e-05
  70    -2.1739008436093e-05
  71    -5.939575023346e-06
  72    1.5465457729411e-06
  73    1.0581627818763e-05
  74    -1.2167040144473e-05
  75    -4.1711900127845e-07
  76    8.2122048171539e-05
  77    0.00011230020170788
  78    -3.65102135355e-05
  79     3.38362901805e-06
  80    -1.8140100987044e-05
  81    1.2065334532874e-06
  82    9.649636010066e-06
  83    6.5792179969476e-05
  84    1.0754127971139e-05
  85    -1.970479378564e-06
  86    -1.5715905146296e-05
  87    6.6031654733689e-05
  88    5.3387683041289e-06
  89    -4.398460879168e-05
  90    1.3481614176762e-05
  91    -1.2163673668142e-06
  92    6.948962080355e-06
  93    -2.5794033928956e-06
  94    3.8904785759955e-06
 Sym= A
 Ene=               6
 Spin= Alpha
 Occup=    1.00000
   1    0.00087900516325694
   2     0.015650779936737
   3     0.027563092678066
   4    -0.014956640014739
   5     0.033756543007529
   6    -0.010373099965637
   7    -0.0090411233217152
   8     0.044896847987282
   9    -0.013416552586394
  10    0.00086695536355535
  11    -0.016737157323916
  12     0.035118496344872
  13     0.014811997373682
  14    -0.0043996401267559
  15    0.0022605622823948
  16      0.01883666621515
  17     0.014475204604921
  18    -0.018436038443919
  19    0.00091050941411669
  20     0.004031356425079
  21    0.0024217657778666
  22     0.005763500878547
  23    -0.00032791585317529
  24    -0.00029997301960748
  25    -7.1631713121578e-05
  26    0.00081622257923534
  27    0.00067546113992124
  28    -0.00043845890066049
  29    0.0089474359145483
  30    -0.0072021980746742
  31     0.001014689998972
  32    0.0009481452382619
  33    -0.0015149393967632
  34    -0.00094380494607386
  35    -0.0026904534000698
  36    0.0019730502761701
  37    0.0017680915643271
  38    -0.0024556507829534
  39    0.0016774309576087
  40    -0.0021490383139476
  41    -0.0024764042422133
  42    0.0020275118814577
  43    -7.1619549555233e-05
  44    -0.00013376500078443
  45    9.5807333872431e-05
  46    0.00035147425217922
  47    -0.00042612076376667
  48    0.0010744150737743
  49    -0.0011448561412922
  50    -0.013637445301719
  51    0.0057477005445205
  52    0.0058523338716827
  53    -0.0045408967217983
  54    0.0081448553794554
  55    0.0060503425728149
  56    -0.0049411726558412
  57    7.7512198408214e-05
  58    2.0230492956641e-05
  59    0.00017274202250105
  60    0.00021862221808413
  61    7.2473849222785e-05
  62     0.001917021003845
  63    -0.013591927696005
  64    -0.051775746108473
  65    -0.0062909514321785
  66     0.037619778916385
  67    -0.027312587233914
  68    -0.0073047309835325
  69     0.035010764237545
  70     -0.02588646558376
  71    0.00055045670245442
  72    -0.00070340887219641
  73    0.00039651703233606
  74    4.0546890828999e-05
  75    -0.00014345859526967
  76       0.0245180019022
  77     0.018498460225599
  78    -0.000597748326074
  79    -0.00095846616868319
  80    0.0010811730416175
  81    0.00054009296464986
  82    0.0017159173155524
  83    -0.0011048761885834
  84     -0.30491417204505
  85      0.58831838576597
  86    -0.015730646400827
  87     -0.21244549794603
  88      0.40681691518273
  89    -0.0092333636700794
  90    0.00098972349118197
  91    0.0063354229856487
  92    -0.012202655273814
  93    -0.0039921214580387
  94    0.0042731971558306
 Sym= A
 Ene=               7
 Spin= Alpha
 Occup=    1.00000
   1    0.0011716288446839
   2     0.027835090147639
   3     0.082341795178638
   4     0.047895838557701
   5      0.00266127017708
   6    -0.00093329666200484
   7     0.050271841766025
   8    -0.017362048593531
   9    0.0087659457255429
  10    -0.00098808031668364
  11    -0.0010307806668252
  12    0.00096330527353977
  13    0.00095830986232012
  14    0.0019450367080328
  15    0.0030533572075859
  16    0.00075428999394342
  17    -0.036017273443763
  18    0.0022833550177552
  19    -0.0012114309622126
  20    0.0020961365715014
  21     0.046552891260282
  22     0.019946666291186
  23    0.0090888728857839
  24     -0.02379984113605
  25     -0.01072342377108
  26       0.0175946311352
  27     0.011579288815773
  28     0.027180669965112
  29    -0.051137842966416
  30    -0.050309114921176
  31    -0.0019768521068997
  32    -0.0031410851256856
  33    0.00077231048224867
  34    -0.00098818438916315
  35    -0.00054260974596123
  36     0.011515399028639
  37    -0.0036109416254178
  38     0.002129276395278
  39    -0.0016424167520586
  40    -0.0076568682401753
  41    0.0019946316531184
  42     0.001086290001676
  43    -0.00055654937517214
  44    -0.00028670394592567
  45    0.00033497907007302
  46    0.00033245426292521
  47    0.00035064480048493
  48     0.001007525289912
  49    0.0070881004864166
  50    -0.0021042908769435
  51      0.55114699760175
  52     0.022682224172505
  53      0.37936311542306
  54      0.38094940863292
  55     0.018386111112963
  56      0.26153892924032
  57    0.0068440707358605
  58    0.0029919192955428
  59    -0.0062202424765303
  60    -0.0033136355142589
  61    -0.0099839243688447
  62    0.00052101383151294
  63    0.0054488533998265
  64      0.00856841773817
  65     0.010119149624815
  66    -0.0016759364526927
  67    -0.0053643834302975
  68    -0.00012701802169768
  69    -0.003884867641197
  70    -0.001456607715617
  71    0.00029836548846657
  72     0.001007698906574
  73    -0.00017504854070235
  74    -0.0013473840154268
  75    -0.00096813319929852
  76    -0.0061685201815854
  77    -0.013052506567807
  78    0.0022867977773052
  79    0.00050702005848242
  80    -0.0015175616267099
  81    0.00084551118309176
  82    -0.00059555109705404
  83    -0.010998069904229
  84    -0.0056062283938856
  85    -0.00048880889892048
  86    0.0062995432629618
  87    -0.0092916136664593
  88     0.001825608594765
  89    0.0078716917448741
  90    -0.0004435473238765
  91    -0.00066109786608765
  92    -4.9438059080768e-05
  93    0.00016394145667746
  94    9.5829475743434e-05
 Sym= A
 Ene=               8
 Spin= Alpha
 Occup=    1.00000
   1    0.00099071619687861
   2     0.033816592125062
   3     0.091235609447998
   4     0.042336136570479
   5     -0.00817731046789
   6    -0.0082945919580998
   7     0.018478601131193
   8    0.0050026416922711
   9    -0.00090387723349058
  10    -0.00010984340412931
  11    -0.0014131222905992
  12    -0.00077800321383929
  13    0.0013410909258831
  14    -0.0007490020851924
  15    0.0030120498751299
  16    0.0039452199493672
  17    -0.012592039503794
  18    0.0010077369005219
  19    -0.0012917367294641
  20    -0.0010470578551306
  21     0.032436956509685
  22    -0.015678485827177
  23     0.009339325044746
  24    -0.022926371695505
  25    -0.010529010318629
  26    -0.016847286704895
  27     0.012248617233603
  28    -0.026378499179725
  29    -0.050672735494683
  30    -0.047483241630599
  31    -0.0017489978747904
  32    0.0028374080602807
  33    0.00082064663023463