[Molden Format]
made by pyscf v[2.0.1]
[Atoms] (AU)
C   1   6     0.00000000000000     0.00000000000000     0.00000000000000
C   2   6     2.85272299873892     0.00000000000000     0.00000000000000
H   3   1     3.62066923017674     0.00000000000000     1.90331545357504
F   4   9     3.65943188126013    -2.04308229183900    -1.24074875274501
F   5   9     3.65943188126013     2.04308229183900    -1.24074875274501
F   6   9    -0.80670888252121     2.22749704090168     0.86712147444210
H   7   1    -0.76794623143782    -0.33050726003861    -1.87439981510865
F   8   9    -0.80670888252121    -1.79658952118831     1.57667650804493
[GTO]
1 0
 s    8 1.00
                  6665  0.00069158396281299
                  1000  0.0053257961529341
                   228   0.027060721042034
                 64.71    0.10165684614077
                 21.06     0.2745748236174
                 7.495    0.44829431892377
                 2.797    0.28490261071525
                0.5215   0.015194859206082
 s    8 1.00
                  6665  -0.00029326965268655
                  1000  -0.0023180354739745
                   228  -0.011499786038565
                 64.71  -0.046826727009787
                 21.06   -0.12846616875047
                 7.495   -0.30126627246289
                 2.797   -0.25563070233011
                0.5215      1.093793361012
 s    1 1.00
                0.1596                   1
 p    3 1.00
                 9.439   0.056979251590039
                 2.002    0.31320721150073
                0.5456    0.76037674173753
 p    1 1.00
                0.1517                   1
 d    1 1.00
                  0.55                   1

2 0
 s    8 1.00
                  6665  0.00069158396281299
                  1000  0.0053257961529341
                   228   0.027060721042034
                 64.71    0.10165684614077
                 21.06     0.2745748236174
                 7.495    0.44829431892377
                 2.797    0.28490261071525
                0.5215   0.015194859206082
 s    8 1.00
                  6665  -0.00029326965268655
                  1000  -0.0023180354739745
                   228  -0.011499786038565
                 64.71  -0.046826727009787
                 21.06   -0.12846616875047
                 7.495   -0.30126627246289
                 2.797   -0.25563070233011
                0.5215      1.093793361012
 s    1 1.00
                0.1596                   1
 p    3 1.00
                 9.439   0.056979251590039
                 2.002    0.31320721150073
                0.5456    0.76037674173753
 p    1 1.00
                0.1517                   1
 d    1 1.00
                  0.55                   1

3 0
 s    3 1.00
                 13.01   0.033498726389998
                 1.962    0.23480080117413
                0.4446     0.8136829578829
 s    1 1.00
                 0.122                   1
 p    1 1.00
                 0.727                   1

4 0
 s    8 1.00
                 14710  0.00072067370873197
                  2207  0.0055504869689163
                 502.8   0.028254207662589
                 142.6    0.10639582836653
                 46.47    0.28668420124307
                  16.7    0.44843796582416
                 6.356    0.26464118141135
                 1.316   0.015326060993048
 s    8 1.00
                 14710  -0.00032119389049893
                  2207  -0.0025461915683188
                 502.8  -0.012643359507821
                 142.6   -0.05195749170489
                 46.47   -0.14344713812646
                  16.7   -0.33243762329603
                 6.356   -0.21865906750347
                 1.316     1.0955904138622
 s    1 1.00
                0.3897                   1
 p    3 1.00
                 22.67   0.064834021493887
                 4.977    0.34053535983101
                 1.347    0.73464640679382
 p    1 1.00
                0.3471                   1
 d    1 1.00
                  1.64                   1

5 0
 s    8 1.00
                 14710  0.00072067370873197
                  2207  0.0055504869689163
                 502.8   0.028254207662589
                 142.6    0.10639582836653
                 46.47    0.28668420124307
                  16.7    0.44843796582416
                 6.356    0.26464118141135
                 1.316   0.015326060993048
 s    8 1.00
                 14710  -0.00032119389049893
                  2207  -0.0025461915683188
                 502.8  -0.012643359507821
                 142.6   -0.05195749170489
                 46.47   -0.14344713812646
                  16.7   -0.33243762329603
                 6.356   -0.21865906750347
                 1.316     1.0955904138622
 s    1 1.00
                0.3897                   1
 p    3 1.00
                 22.67   0.064834021493887
                 4.977    0.34053535983101
                 1.347    0.73464640679382
 p    1 1.00
                0.3471                   1
 d    1 1.00
                  1.64                   1

6 0
 s    8 1.00
                 14710  0.00072067370873197
                  2207  0.0055504869689163
                 502.8   0.028254207662589
                 142.6    0.10639582836653
                 46.47    0.28668420124307
                  16.7    0.44843796582416
                 6.356    0.26464118141135
                 1.316   0.015326060993048
 s    8 1.00
                 14710  -0.00032119389049893
                  2207  -0.0025461915683188
                 502.8  -0.012643359507821
                 142.6   -0.05195749170489
                 46.47   -0.14344713812646
                  16.7   -0.33243762329603
                 6.356   -0.21865906750347
                 1.316     1.0955904138622
 s    1 1.00
                0.3897                   1
 p    3 1.00
                 22.67   0.064834021493887
                 4.977    0.34053535983101
                 1.347    0.73464640679382
 p    1 1.00
                0.3471                   1
 d    1 1.00
                  1.64                   1

7 0
 s    3 1.00
                 13.01   0.033498726389998
                 1.962    0.23480080117413
                0.4446     0.8136829578829
 s    1 1.00
                 0.122                   1
 p    1 1.00
                 0.727                   1

8 0
 s    8 1.00
                 14710  0.00072067370873197
                  2207  0.0055504869689163
                 502.8   0.028254207662589
                 142.6    0.10639582836653
                 46.47    0.28668420124307
                  16.7    0.44843796582416
                 6.356    0.26464118141135
                 1.316   0.015326060993048
 s    8 1.00
                 14710  -0.00032119389049893
                  2207  -0.0025461915683188
                 502.8  -0.012643359507821
                 142.6   -0.05195749170489
                 46.47   -0.14344713812646
                  16.7   -0.33243762329603
                 6.356   -0.21865906750347
                 1.316     1.0955904138622
 s    1 1.00
                0.3897                   1
 p    3 1.00
                 22.67   0.064834021493887
                 4.977    0.34053535983101
                 1.347    0.73464640679382
 p    1 1.00
                0.3471                   1
 d    1 1.00
                  1.64                   1

[5d]
[7f]
[9g]

[MO]
 Sym= A
 Ene=               0
 Spin= Alpha
 Occup=    1.00000
   1    -0.00021041473557483
   2    7.5810038123668e-05
   3    0.0031734505797978
   4    0.00047575136506074
   5     -5.5892735416e-06
   6    -7.9113327128546e-06
   7    0.0015407326217838
   8    4.9272117480094e-05
   9    0.00043961457746991
  10    -3.9434468112119e-05
  11    9.6390470896963e-05
  12    -4.7630217720689e-06
  13    8.3377550789551e-05
  14    -4.1753130138028e-06
  15        1.001910454715
  16    0.0042200483335651
  17    -0.007397760729205
  18    0.00058962002716564
  19    -1.7747086394022e-05
  20    -0.0011218795586747
  21    0.0015855694765558
  22    -2.5954367271406e-05
  23    -0.00074087574574797
  24    -8.3208795595402e-05
  25    -0.00011476404781465
  26    4.9030794365142e-06
  27    -0.00033449105745916
  28    -2.0837382048116e-06
  29    0.00097124537424188
  30     0.001539494745564
  31    -0.00022278985511588
  32    4.2646362094822e-06
  33    -6.672758605656e-05
  34    0.00015792088642893
  35    0.0006796045884127
  36    -0.00016339505580053
  37    -7.2733125233636e-05
  38    0.00030600710088123
  39    0.00014212672360608
  40    0.00013596843704012
  41    -0.0007847611465775
  42    -0.00040746066555751
  43    4.1475818488383e-05
  44    2.9997934596843e-05
  45    -0.00011611389251597
  46    8.7794565663482e-05
  47    7.1724726173799e-05
  48    0.00015077925574897
  49    0.0006661135888869
  50    -0.00012101992602442
  51    -7.4024068510344e-05
  52    -0.0003072476501593
  53    0.00014286418294605
  54    0.00013138195147692
  55    0.00077338002162917
  56    -0.00039983344604452
  57    4.1174277691272e-05
  58    2.9466068678175e-05
  59    0.00011336092601721
  60    8.6034559817568e-05
  61    -6.9812060511276e-05
  62    -8.2471577112785e-06
  63    -5.5578473483184e-06
  64    -0.00014810769990363
  65    5.3410019943737e-06
  66    -1.1435720810655e-05
  67    8.5717096363298e-06
  68    9.2796969805647e-05
  69    8.5495019499106e-05
  70    -4.6754279147535e-05
  71    -2.2488591234498e-05
  72    -9.8401883959995e-06
  73    1.0313757231834e-05
  74    2.2992622656865e-05
  75    -1.3595991308353e-05
  76    -5.0291776006828e-05
  77    0.00043671010673429
  78    9.812419116469e-05
  79    1.7272757685907e-06
  80    2.1288693983619e-05
  81    -9.61887092966e-07
  82    5.9625739442163e-06
  83    -0.00019062206199832
  84    7.9762604745593e-07
  85    1.0583535331919e-05
  86    8.2749203570971e-06
  87    6.6992376358743e-05
  88    -9.4784416112528e-05
  89    -2.9892319622947e-05
  90    -1.2814837294986e-05
  91    -1.3632636876658e-05
  92    -1.4864560603945e-05
  93    2.4744336166035e-05
  94    6.9450037803043e-06
 Sym= A
 Ene=               1
 Spin= Alpha
 Occup=    1.00000
   1       1.0019104555688
   2    0.0042200718134416
   3    -0.0073977338812058
   4    -0.0005894951036266
   5    0.00017735153456514
   6    0.0011079660826804
   7    -0.0015855218750264
   8    0.00010308739810022
   9    0.00073415075922174
  10    -6.9257136357965e-05
  11    -0.00011337852117509
  12    -8.6448525964108e-05
  13    -0.00032643304496722
  14    -1.7878894024188e-05
  15    -0.00021041016470832
  16    7.5853256927086e-05
  17    0.0031734663667824
  18    -0.00047583903542681
  19    -4.1277444538606e-06
  20    8.7645298258887e-06
  21    -0.0015407510925151
  22    -2.7810657406607e-05
  23    -0.00044149498208304
  24    -4.1245634349475e-05
  25    9.4199612847651e-05
  26    7.0555273364404e-06
  27    8.2343690430158e-05
  28    2.0849114849115e-05
  29    -5.0306583397281e-05
  30    0.00043669764684535
  31    -9.8127135906417e-05
  32    -1.9958284101474e-06
  33    -2.1265119698482e-05
  34    -8.5425996773063e-07
  35    5.9802153640027e-06
  36    -0.00019060278233715
  37    -7.5646668564128e-07
  38    8.9907469810498e-06
  39    -1.0001435913158e-05
  40    -6.6958914065651e-05
  41    -8.8149874715906e-05
  42    4.588772985988e-05
  43    -1.7284638101198e-05
  44    -1.2219621387909e-05
  45    1.4403610234558e-05
  46    2.2164081179124e-05
  47    -9.2069373510761e-06
  48    -8.1782648199908e-06
  49    -5.540566533236e-06
  50    -0.00014809234286175
  51    -5.3080826889962e-06
  52    -1.2713566755488e-05
  53    -6.4184783729224e-06
  54    -9.2768618583108e-05
  55    9.2340089964507e-05
  56    3.1223943458116e-05
  57    -1.9016237659234e-05
  58    -1.2052239355558e-05
  59    -1.2421067156971e-05
  60    2.4997775663194e-05
  61    1.1680715512798e-05
  62    0.00015040495883008
  63    0.00066609841774376
  64    -0.00012103684746391
  65    7.4090569410425e-05
  66    -0.00032743212525671
  67    -8.7211489234372e-05
  68    -0.00013134369869805
  69    0.00083102948682795
  70    0.00025954978070763
  71    7.0640071057993e-05
  72    1.6895899665725e-05
  73    -7.9618658079948e-05
  74    0.0001030484809427
  75    7.3864924395217e-05
  76    0.00097119678448592
  77    0.0015394816398002
  78    0.00022278895064373
  79    1.5786962509762e-05
  80    6.4968715780798e-05
  81    0.00015733953954273
  82    0.00067961191565413
  83    -0.00016338891958527
  84    7.2844278617149e-05
  85    0.00027662246682492
  86    -0.00019305459843873
  87    -0.0001358984470854
  88    -0.00070212297771412
  89    0.00053757429429969
  90    2.9126974907651e-06
  91    4.1995036749339e-05
  92    0.0001364122177686
  93    6.5533210481709e-05
  94    -6.5423400466109e-05
 Sym= A
 Ene=               2
 Spin= Alpha
 Occup=    1.00000
   1    4.5265316327609e-05
   2    5.2151631560989e-05
   3    -0.0012982854625756
   4    -0.00012982155490085
   5    1.7549951536625e-05
   6    -1.2283559992381e-05
   7    -0.00071225777406823
   8    -0.0002119331055362
   9    0.00021002859149303
  10    1.0983288618608e-05
  11    1.304976552064e-05
  12    -2.9829960242705e-05
  13    -8.4401903458145e-05
  14    -5.8542528605924e-06
  15    -0.00017597631313448
  16    0.00032939031413001
  17    0.0035731113641535
  18    0.00040829230943092
  19    0.00084366980756534
  20    -0.00052870278248963
  21    -0.00019305420002453
  22    0.0012205573108145
  23    -0.001103723910418
  24    -3.7091737280658e-05
  25    -6.8118919468271e-05
  26    -9.8623347666387e-05
  27    -5.5606049213035e-05
  28    8.2838410554053e-05
  29    -0.00022416674396076
  30    -6.8678416845875e-05
  31    -1.1222203216149e-05
  32    -0.000137619451758
  33    9.2708693234695e-05
  34    8.8555327566486e-05
  35    0.00014404972701576
  36    -0.00065139273189694
  37    4.6894171432092e-06
  38    -3.9179637643191e-05
  39    -4.4185144962098e-05
  40    2.6742154540744e-05
  41    -0.00041272252732816
  42    0.00014941414801471
  43    1.8312592876398e-05
  44    -1.2561067938624e-05
  45    -1.5473679093138e-06
  46    1.5955828548323e-05
  47    1.1053717023069e-05
  48       1.0010287940616
  49    0.00064919237248015
  50    -0.0059675457458368
  51    -0.00070287485299746
  52    -0.0020423269108773
  53    0.0012374602696706
  54    0.00029763199999042
  55    0.00047766758077573
  56    -0.00021066125563947
  57    1.3261269608019e-05
  58    4.1582077915651e-05
  59    8.3451604370015e-05
  60    6.8511157369452e-05
  61    -6.0420422492563e-05
  62    1.4602784988864e-05
  63    2.8035026480786e-05
  64    6.8465471280358e-06
  65    9.7957767163853e-06
  66    5.0215753668562e-06
  67    2.2335861859786e-05
  68    -5.8277805365784e-05
  69    -1.3371179136621e-05
  70    -4.3054420029667e-05
  71    1.0413923643719e-05
  72    9.8658516738256e-06
  73    -4.5565267891077e-06
  74    -1.6722910270504e-05
  75    2.4252397207238e-06
  76    0.00010160582997624
  77    -0.00011798854570905
  78    -4.7179665795587e-05
  79    -3.9788026512924e-06
  80    -2.1861580843822e-06
  81    -2.4737178269305e-05
  82    -4.4251159886842e-05
  83    0.00010633776055616
  84    -2.5141587750355e-05
  85    8.915767523651e-06
  86    -1.7131898660563e-06
  87     0.000188012299832
  88    1.3296654095161e-05
  89    -1.6534523239096e-05
  90    -3.3495460214238e-06
  91    2.9334353069996e-06
  92    2.2102780852699e-06
  93     6.68837151287e-07
  94    -5.0824325294769e-07
 Sym= A
 Ene=               3
 Spin= Alpha
 Occup=    1.00000
   1    -0.00017834987606795
   2    0.00031113710955946
   3    0.0035684064789096
   4    -0.00040091078663184
   5    0.00090430129191484
   6    0.00036555545536233
   7    0.00019623972845631
   8    0.0013926762367303
   9    0.00087688454051954
  10    -6.1949593486898e-05
  11    -5.1518884694803e-05
  12    7.2173350993574e-05
  13    -7.3023633508398e-05
  14    -8.9618125368247e-05
  15    4.4763656190576e-05
  16    4.7213530980539e-05
  17    -0.0013038751012809
  18    0.00013574876599313
  19     1.81066825595e-05
  20    7.9270782531897e-06
  21    0.00071397890456917
  22    -0.00024239684497489
  23    -0.00017221921214495
  24    3.9904601010369e-06
  25    1.2242762852565e-05
  26    1.7004102478717e-05
  27    -8.9078801863067e-05
  28    9.0463959790823e-06
  29    0.00010091756975756
  30    -0.00011427702482193
  31    4.7251017739356e-05
  32    -3.7457154728744e-06
  33    2.8457733740116e-06
  34    -2.4894888889358e-05
  35    -4.4192614784793e-05
  36    0.00010796631468725
  37    2.481260952067e-05
  38    9.6647004886057e-06
  39    6.7502332812161e-07
  40    -0.00018861999734903
  41    1.6554215263474e-05
  42    1.5101637394064e-05
  43    -2.5541804683454e-06
  44    2.8337689742843e-06
  45    -2.8985305269744e-06
  46    1.0786838189298e-06
  47     1.05472055027e-06
  48    1.4657022698542e-05
  49    2.7746540388183e-05
  50    5.1659283246711e-06
  51    -8.9486623894949e-06
  52    4.9368674431987e-07
  53    -2.3511204543754e-05
  54    5.8282464891599e-05
  55    -5.316114186746e-06
  56    4.4435004845115e-05
  57    9.0114989607455e-06
  58    1.0138335295845e-05
  59    4.5948173889624e-06
  60    -1.7478203081598e-05
  61    -8.0899330793851e-07
  62       1.0010286245176
  63    0.00075397639857191
  64    -0.0058430111165602
  65    0.00074872190925332
  66    -0.0021425429716731
  67    -0.00082584581958825
  68    -0.00026499250651373
  69     0.000563184162665
  70    0.0001502579455833
  71    3.6050915751717e-05
  72    3.0442663099192e-05
  73    -6.4160860551561e-05
  74    8.3423785113966e-05
  75    6.6519609361595e-05
  76    -0.00022082382569156
  77    -6.0547265879228e-05
  78    1.1497811451618e-05
  79    -0.00015207560561743
  80    -6.7642953478816e-05
  81    8.8770585727597e-05
  82    0.00014572180191013
  83    -0.00064955001745591
  84    -4.4771447450857e-06
  85    -2.8086586860988e-05
  86    4.8883086644809e-05
  87    -2.6893261266041e-05
  88    -0.00042969749618068
  89    -7.6507152717687e-05
  90    1.6822015907501e-05
  91    -1.0499955388091e-05
  92    9.7597315613002e-06
  93    1.5183701555763e-05
  94    -1.304456330682e-05
 Sym= A
 Ene=               4
 Spin= Alpha
 Occup=    1.00000
   1    4.6540712603503e-05
   2    6.1758011076965e-05
   3    -0.0012275271171833
   4    -0.00013332849822236
   5    -1.6872461953912e-05
   6    -1.333861432983e-05
   7    -0.00062341986252166
   8    0.00015467162389791
   9    0.00028039984137983
  10    3.0172622515072e-05
  11    3.1735040074641e-05
  12    3.7801818089593e-05
  13    -7.8880988320988e-05
  14    8.4157764787519e-06
  15    -0.00018101275554136
  16    0.00024438293347049
  17    0.0034389035607283
  18    0.00036692539258479
  19    -0.00073239712037024
  20    -0.00046082103927225
  21    -0.00015511639360689
  22    -0.0011979099030737
  23    -0.0010798624294903
  24    -3.0578880072305e-05
  25    -5.4460096724852e-05
  26    9.1435201934478e-05
  27    -5.0743561346025e-05
  28    -8.6108028502872e-05
  29    -0.00023826446994804
  30    -5.2805562307199e-05
  31    -1.0545228467853e-05
  32    0.00014082025693434
  33    9.730404688628e-05
  34       1.0010252483895
  35    0.0011728590370846
  36    -0.0053119598530753
  37    -0.00054068678509975
  38    0.0017139367167771
  39    0.0010504138090725
  40    0.00041273592666775
  41    -0.00067583707158541
  42    -0.00034124702686574
  43    1.4125591772418e-05
  44    4.6068167009201e-05
  45    -9.1219138650481e-05
  46    7.2412721546956e-05
  47    6.4596025890037e-05
  48    8.6958062780256e-05
  49    0.00014263901507053
  50    -0.00063043727172377
  51    2.5529968879705e-06
  52    3.6210841026183e-05
  53    -4.0621724667394e-05
  54    2.776597575815e-05
  55    0.00039417377944937
  56    0.00014477644319428
  57    1.9103725390446e-05
  58    -1.2875990609044e-05
  59    1.1351205065455e-06
  60    1.6116054268248e-05
  61    -1.1302610327952e-05
  62    -2.5921417546246e-05
  63    -4.7939726186923e-05
  64    0.00011589758630353
  65    -2.536337917518e-05
  66    -5.1794552688125e-06
  67    4.2927258139779e-06
  68    0.00015919310724473
  69    -1.0946735559157e-05
  70    -3.7850421402369e-05
  71    4.2473825935479e-06
  72    2.563585645173e-06
  73    3.0077468531742e-06
  74    3.8332075506081e-06
  75    3.2014151408299e-06
  76    7.4535561386831e-05
  77    -4.1073304914924e-05
  78    -6.4290283849531e-05
  79    1.635581882443e-05
  80    -1.2080025675781e-05
  81    3.2222522174516e-05
  82    6.5099834634817e-05
  83    -7.2372518476993e-05
  84    2.4670056941359e-05
  85    5.2882423732633e-06
  86    4.614972438182e-06
  87    -7.4787604595429e-05
  88    5.3573060470601e-06
  89    -1.4466775799353e-05
  90    7.8939417037459e-06
  91    1.1009724223886e-05
  92    -1.353229402634e-06
  93    -1.6361523499941e-05
  94    2.3442391023891e-06
 Sym= A
 Ene=               5
 Spin= Alpha
 Occup=    1.00000
   1    -0.00017493323775089
   2    0.0002922947376875
   3     0.003452800144112
   4    -0.00038962282860629
   5    -0.0006923531666404
   6    0.00062603324475588
   7    0.00016286321710624
   8    -0.00099572281798126
   9    0.0012666354016011
  10    2.594707884416e-06
  11    -6.7101477021836e-05
  12    -0.00010989383665041
  13    -3.8050029945093e-05
  14    7.3122788974279e-05
  15    4.6576819315058e-05
  16    5.5102782643729e-05
  17    -0.0012449894137157
  18    0.0001434739954902
  19    -1.769543657485e-05
  20    1.8702656468304e-05
  21    0.00063559555314556
  22    0.00010081314546479
  23    -0.00029304683884425
  24    4.1719612540767e-05
  25    3.0681443097695e-05
  26    -4.076067429971e-05
  27    -7.1659525816041e-05
  28    -8.1521488509255e-07
  29    7.3433155527168e-05
  30    -4.6359589389472e-05
  31    6.4098493772738e-05
  32    1.7986768101018e-05
  33    9.2750335676994e-06
  34    3.178988142337e-05
  35    6.4522833986994e-05
  36    -6.8939241756007e-05
  37    -2.4997519546154e-05
  38    4.6461897242147e-06
  39    -6.3525970642938e-06
  40    7.2602675744316e-05
  41    9.4798989915193e-06
  42    1.1883395833418e-05
  43    7.5931263779121e-06
  44    1.1215567692901e-05
  45    8.1520878807298e-07
  46    -1.6566996040048e-05
  47    -2.1908679175702e-07
  48    -2.5939404571137e-05
  49    -4.6983325191385e-05
  50    0.00012132978658814
  51    2.1684947717831e-05
  52    -8.2311305902895e-06
  53    -1.9158000998722e-06
  54    -0.00016281262996774
  55    -6.9325258564321e-06
  56    3.9526886943943e-05
  57    4.9292461953302e-06
  58    3.208557901944e-06
  59    -8.5659732157126e-07
  60    4.0159147599461e-06
  61    -2.9210063400207e-06
  62    8.649919555686e-05
  63    0.00014227075082622
  64    -0.00062762305118392
  65    -2.6965102669318e-06
  66    4.1734234633287e-05
  67    3.3369101938654e-05
  68    -2.7752246568457e-05
  69    0.00036244427948326
  70    -0.00021149601713907
  71    1.7577933323226e-05
  72    -1.423991733684e-05
  73    7.1287153434429e-06
  74    1.4671172697134e-05
  75    8.799343226088e-06
  76    -0.00023309094890338
  77    -5.825585466626e-05
  78    9.0133332027991e-06
  79    0.00011972009979278
  80    -0.00011839195339311
  81       1.0010250806064
  82    0.0009191138620765
  83    -0.0056102779693863
  84    0.00070764931202223
  85    0.0016338269375705
  86    -0.0014287209410695
  87    -0.00029909659657978
  88    -0.00052066881363203
  89    0.00038974076945155
  90    -1.5598853829516e-05
  91    5.3314346627867e-05
  92    9.8487764129989e-05
  93    5.4373672095229e-05
  94    -5.1837271301629e-05
 Sym= A
 Ene=               6
 Spin= Alpha
 Occup=    1.00000
   1    -0.002735481742168
   2    -0.0030347112764179
   3     0.012063319570472
   4    0.00026137204230092
   5    0.0019918038747849
   6    -0.00026892521606107
   7     0.030628989100456
   8     0.022430723964899
   9    0.0061022190001936
  10     0.028315453359599
  11     0.014487329637132
  12    -0.011325508383055
  13    -0.0086370440631663
  14    -0.023780442089109
  15    -0.0017734137254407
  16    -0.032794101904124
  17    -0.081204247460677
  18     0.043034614273458
  19    -0.0019906708732695
  20    -0.0092260737835115
  21     0.021075429397758
  22    -0.025998179026746
  23    -0.0035853790265189
  24    0.00033941091477543
  25    0.00095674610199633
  26    -0.0020954400109922
  27    -0.0015976148439403
  28    -0.00041623331215271
  29     -0.00848679235234
  30      0.02859545783109
  31    -0.0019994098416528
  32    -5.9338937736783e-06
  33    0.00065816485720358
  34    0.00041439461485316
  35    0.0011575470691254
  36    -0.0021449672966108
  37    -0.0016542147637807
  38    0.0025889722936939
  39    -0.00042829024042713
  40    -0.0036134765618584
  41    0.0042169909755755
  42    -0.0012743545175083
  43    -3.6846999325687e-05
  44    0.00020445218469848
  45    -0.00015477637237364
  46    -0.00024257555794957
  47    0.00052500715936102
  48    -0.0012947775570325
  49    0.0019838064455491
  50     0.021851871002908
  51    -0.0081069886487679
  52    -0.0074367828504778
  53    0.0072326235437426
  54    -0.0069066843652891
  55    -0.0092990887543037
  56    0.0093283368804115
  57    0.00010034216165129
  58    0.00044606715924111
  59    -0.00018709679099036
  60    -0.00060534804531894
  61    -0.00050333335388214
  62    0.00081250244468953
  63    0.00019929318335206
  64    -0.010195732323178
  65    -0.0031566999890243
  66    0.0019866702465193
  67    -0.0017314451153241
  68    -0.0048911599458259
  69    0.0021891826001447
  70    0.00022928210600381
  71    0.0006687460304372
  72    0.00027712459697159
  73    -0.00017532821255736
  74    -0.00030941457849386
  75    -0.00027706667570169
  76     0.051284786497884
  77     0.047240367377123
  78    -0.0019542746726167
  79    -0.0029171529697645
  80    0.0012477195961015
  81    -0.0015882862434397
  82    0.0024609092170334
  83     0.016078730966074
  84      0.53961284804529
  85     0.094380649133661
  86      0.38373447665153
  87      0.37542588073719
  88     0.066948736720649
  89      0.26402181851126
  90    -0.0087765321552055
  91    -0.0040883154918506
  92    0.0044905789525298
  93    0.0026206306515608
  94    0.0089151835480684
 Sym= A
 Ene=               7
 Spin= Alpha
 Occup=    1.00000
   1    0.0017740863706985
   2     0.032796031231983
   3     0.081197523041024
   4     0.043034455395043
   5    0.00035385211297128
   6    -0.0094353991790094
   7     0.021065694436339
   8     0.024980485196548
   9    -0.008056531887881
  10    0.00025428103692116
  11    -0.00087197754631708
  12    -0.0017960828206992
  13    0.0019416141082604
  14    -0.00057896206314781
  15    0.0027430829463501
  16    0.0030956241727503
  17    -0.012043501270464
  18    0.00028835510359817
  19    -0.0020745564132779
  20    3.8471931282034e-05
  21     0.030625522934554
  22    -0.021031874022931
  23    0.0099099531409828
  24      -0.0239047734294
  25    -0.010139620176651
  26    -0.017546798927907
  27     0.011182763009872
  28    -0.025937432138903
  29    -0.051282890061803
  30    -0.047253029351388
  31    -0.0019526982714073
  32    0.0030869669204488
  33    0.00072059272484218
  34    0.0014488730643677
  35    -0.0027968055193853
  36    -0.016474391184464
  37      0.53954428977519
  38    -0.026085992652723
  39      0.39439343582462
  40       0.3753812425521
  41    -0.019932832516542
  42      0.27170210917954
  43    0.0071165199833906
  44    0.0024763986948824
  45    0.0063758780201308
  46    -0.0035820530173867
  47    0.0094864527301276
  48    -0.00081294123161141
  49    -0.00020210787044761
  50     0.010193449665602
  51    -0.0031553536709994
  52    -0.0022502358609949
  53    -0.0013622833919461
  54    -0.004890351716578
  55    -0.0021099197680603
  56    0.00060461153978985
  57    -0.00059537981964968
  58    -0.00022444044359381
  59    -0.00030998373352509
  60    0.00035123480595291
  61    -0.0003209423581841
  62    0.0012949987797357
  63    -0.0019827760045797
  64    -0.021850104136217
  65    -0.008105142292747
  66    0.0085785478834381
  67     0.005831372738321
  68    -0.0069049819652524
  69      0.01077667304433
  70     0.007573500057268
  71    -5.609952270009e-05
  72    -0.00035184769926794
  73    -0.0001021073304155
  74    0.00063079315672807
  75    -0.00057302129803149
  76    0.0084878110551806
  77    -0.028606251928272
  78    -0.0019993341162941
  79    0.0001198371552867
  80    0.00064715003168525
  81    -0.00041486591767466
  82    -0.0011581068520791
  83    0.0021498683126962
  84    -0.001653243729951
  85    -0.0026246302795016
  86    2.787325063617e-05
  87    -0.0036112295715021
  88    -0.0043728459253593
  89    -0.00052215669869433
  90    7.4751780218433e-05
  91    -0.0002925828448867
  92    -9.3106829269537e-05
  93    0.00026444059053389
  94    0.00048150234315857
 Sym= A
 Ene=               8
 Spin= Alpha
 Occup=    1.00000
   1    -0.0027788717444543
   2    -0.0026701735179684
   3     0.017032971511131
   4    0.00043321748152297
   5    -0.0015248481618759
   6    0.00080257337148264
   7     0.034453121734127
   8    -0.019815495507042
   9      0.01313856382004
  10     0.018016250443802
  11    0.0054436619462948
  12     0.021810302355371
  13    -0.014527699580739
  14     0.027566893779963
  15    -0.0021765516546097
  16    -0.031999840858343
  17    -0.076513857397074
  18     0.044546810180831
  19    0.0012640671433042
  20    -0.0058493585774559
  21     0.029229672923545
  22     0.028847563695575
  23    -0.0044569068442599
  24    -7.1506812351974e-05
  25    0.00037508128372992
  26    0.0020894205641882
  27    -0.0022486104699176
  28    0.00085024809418764
  29    -0.0050238953964447
  30     0.022660561937584
  31    4.9263872816083e-06
  32    -0.00074630425804612
  33    -0.00012146904489935