[Molden Format]
made by pyscf v[2.0.1]
[Atoms] (AU)
C   1   6     0.00000000000000     0.00000000000000     0.00000000000000
C   2   6     2.85272299873892     0.00000000000000     0.00000000000000
H   3   1     3.62066923017674     0.00000000000000     1.90331545357504
F   4   9     3.65943188126013    -2.04308229183900    -1.24074875274501
F   5   9     3.65943188126013     2.04308229183900    -1.24074875274501
F   6   9    -0.80670888252121    -2.04308229183900     1.24074875274501
H   7   1    -0.76794623143782    -0.00000000000000    -1.90331545357504
F   8   9    -0.80670888252121     2.04308229183900     1.24074875274501
[GTO]
1 0
 s    8 1.00
                  6665  0.00069158396281299
                  1000  0.0053257961529341
                   228   0.027060721042034
                 64.71    0.10165684614077
                 21.06     0.2745748236174
                 7.495    0.44829431892377
                 2.797    0.28490261071525
                0.5215   0.015194859206082
 s    8 1.00
                  6665  -0.00029326965268655
                  1000  -0.0023180354739745
                   228  -0.011499786038565
                 64.71  -0.046826727009787
                 21.06   -0.12846616875047
                 7.495   -0.30126627246289
                 2.797   -0.25563070233011
                0.5215      1.093793361012
 s    1 1.00
                0.1596                   1
 p    3 1.00
                 9.439   0.056979251590039
                 2.002    0.31320721150073
                0.5456    0.76037674173753
 p    1 1.00
                0.1517                   1
 d    1 1.00
                  0.55                   1

2 0
 s    8 1.00
                  6665  0.00069158396281299
                  1000  0.0053257961529341
                   228   0.027060721042034
                 64.71    0.10165684614077
                 21.06     0.2745748236174
                 7.495    0.44829431892377
                 2.797    0.28490261071525
                0.5215   0.015194859206082
 s    8 1.00
                  6665  -0.00029326965268655
                  1000  -0.0023180354739745
                   228  -0.011499786038565
                 64.71  -0.046826727009787
                 21.06   -0.12846616875047
                 7.495   -0.30126627246289
                 2.797   -0.25563070233011
                0.5215      1.093793361012
 s    1 1.00
                0.1596                   1
 p    3 1.00
                 9.439   0.056979251590039
                 2.002    0.31320721150073
                0.5456    0.76037674173753
 p    1 1.00
                0.1517                   1
 d    1 1.00
                  0.55                   1

3 0
 s    3 1.00
                 13.01   0.033498726389998
                 1.962    0.23480080117413
                0.4446     0.8136829578829
 s    1 1.00
                 0.122                   1
 p    1 1.00
                 0.727                   1

4 0
 s    8 1.00
                 14710  0.00072067370873197
                  2207  0.0055504869689163
                 502.8   0.028254207662589
                 142.6    0.10639582836653
                 46.47    0.28668420124307
                  16.7    0.44843796582416
                 6.356    0.26464118141135
                 1.316   0.015326060993048
 s    8 1.00
                 14710  -0.00032119389049893
                  2207  -0.0025461915683188
                 502.8  -0.012643359507821
                 142.6   -0.05195749170489
                 46.47   -0.14344713812646
                  16.7   -0.33243762329603
                 6.356   -0.21865906750347
                 1.316     1.0955904138622
 s    1 1.00
                0.3897                   1
 p    3 1.00
                 22.67   0.064834021493887
                 4.977    0.34053535983101
                 1.347    0.73464640679382
 p    1 1.00
                0.3471                   1
 d    1 1.00
                  1.64                   1

5 0
 s    8 1.00
                 14710  0.00072067370873197
                  2207  0.0055504869689163
                 502.8   0.028254207662589
                 142.6    0.10639582836653
                 46.47    0.28668420124307
                  16.7    0.44843796582416
                 6.356    0.26464118141135
                 1.316   0.015326060993048
 s    8 1.00
                 14710  -0.00032119389049893
                  2207  -0.0025461915683188
                 502.8  -0.012643359507821
                 142.6   -0.05195749170489
                 46.47   -0.14344713812646
                  16.7   -0.33243762329603
                 6.356   -0.21865906750347
                 1.316     1.0955904138622
 s    1 1.00
                0.3897                   1
 p    3 1.00
                 22.67   0.064834021493887
                 4.977    0.34053535983101
                 1.347    0.73464640679382
 p    1 1.00
                0.3471                   1
 d    1 1.00
                  1.64                   1

6 0
 s    8 1.00
                 14710  0.00072067370873197
                  2207  0.0055504869689163
                 502.8   0.028254207662589
                 142.6    0.10639582836653
                 46.47    0.28668420124307
                  16.7    0.44843796582416
                 6.356    0.26464118141135
                 1.316   0.015326060993048
 s    8 1.00
                 14710  -0.00032119389049893
                  2207  -0.0025461915683188
                 502.8  -0.012643359507821
                 142.6   -0.05195749170489
                 46.47   -0.14344713812646
                  16.7   -0.33243762329603
                 6.356   -0.21865906750347
                 1.316     1.0955904138622
 s    1 1.00
                0.3897                   1
 p    3 1.00
                 22.67   0.064834021493887
                 4.977    0.34053535983101
                 1.347    0.73464640679382
 p    1 1.00
                0.3471                   1
 d    1 1.00
                  1.64                   1

7 0
 s    3 1.00
                 13.01   0.033498726389998
                 1.962    0.23480080117413
                0.4446     0.8136829578829
 s    1 1.00
                 0.122                   1
 p    1 1.00
                 0.727                   1

8 0
 s    8 1.00
                 14710  0.00072067370873197
                  2207  0.0055504869689163
                 502.8   0.028254207662589
                 142.6    0.10639582836653
                 46.47    0.28668420124307
                  16.7    0.44843796582416
                 6.356    0.26464118141135
                 1.316   0.015326060993048
 s    8 1.00
                 14710  -0.00032119389049893
                  2207  -0.0025461915683188
                 502.8  -0.012643359507821
                 142.6   -0.05195749170489
                 46.47   -0.14344713812646
                  16.7   -0.33243762329603
                 6.356   -0.21865906750347
                 1.316     1.0955904138622
 s    1 1.00
                0.3897                   1
 p    3 1.00
                 22.67   0.064834021493887
                 4.977    0.34053535983101
                 1.347    0.73464640679382
 p    1 1.00
                0.3471                   1
 d    1 1.00
                  1.64                   1

[5d]
[7f]
[9g]

[MO]
 Sym= A
 Ene=               0
 Spin= Alpha
 Occup=    1.00000
   1       1.0019103491563
   2     0.004219211638958
   3    -0.0073947171843242
   4    -0.00059151027454919
   5    -3.6598710828119e-09
   6    0.0011212738587144
   7    -0.0015864285814556
   8    -4.8814733069721e-10
   9    0.00074316362864244
  10    -8.318682202289e-05
  11     -0.00011498666014
  12    -6.9244672273466e-10
  13    -0.00033447238024499
  14    2.4557861191577e-10
  15    -0.00020925513865886
  16    7.8020070217614e-05
  17    0.0031678081747257
  18    -0.00047621023595403
  19    5.5412364818961e-10
  20    9.1500481109612e-06
  21    -0.0015378530207489
  22    -6.5884466046768e-11
  23    -0.00044342774477904
  24    -4.053042869213e-05
  25    9.5407789760822e-05
  26    -1.2221883455829e-11
  27    8.3920291396272e-05
  28    1.7591344458566e-10
  29    -5.0618131180242e-05
  30    0.00043880008011646
  31    -9.8268727563553e-05
  32    2.7534508675699e-12
  33    -2.0819088395995e-05
  34    -5.0513857953119e-06
  35    -5.5248980625024e-07
  36    -0.00016695366839438
  37    -2.8130810168859e-06
  38    1.1187323776154e-05
  39    -8.3484969445454e-06
  40    -8.2607358601961e-05
  41    -9.1573126607073e-05
  42    3.9657266179542e-05
  43    -1.816783240515e-05
  44    -1.231690476963e-05
  45    1.3567821761489e-05
  46    2.3690111674031e-05
  47    -1.0437712336772e-05
  48    -5.0514388430063e-06
  49    -5.547816005052e-07
  50    -0.00016695639008837
  51    -2.8132602907702e-06
  52    -1.1188631671021e-05
  53    -8.3459417501039e-06
  54    -8.2607420056274e-05
  55    9.1572291236615e-05
  56    3.9659006951191e-05
  57    -1.8167806864055e-05
  58    -1.2316925144943e-05
  59    -1.3567883395974e-05
  60    2.3690084298986e-05
  61    1.0437731653299e-05
  62    0.0001538393926111
  63    0.00067286976080222
  64    -0.00014270308680868
  65    7.2858257163022e-05
  66    0.00030679211998075
  67    -0.00014223910995621
  68    -0.00013238684767205
  69    -0.00078009189050776
  70    0.00040332719071165
  71    4.1303601997549e-05
  72    2.9648758814984e-05
  73    0.0001147549144578
  74    8.7067621075988e-05
  75    -7.0711313314548e-05
  76    0.00097210432599007
  77    0.0015387537464358
  78    0.00022315318574215
  79    -1.0213569231027e-10
  80    6.6128514676877e-05
  81    0.00015383843931122
  82    0.00067286493034626
  83    -0.00014270736457818
  84    7.2852041200706e-05
  85    -0.00030678872782783
  86    -0.00014223564052852
  87    -0.00013239095495662
  88    0.00078009379778269
  89    0.00040332926775993
  90    4.1303604783184e-05
  91    2.9648914735198e-05
  92    -0.00011475511164797
  93    8.706765542752e-05
  94    7.0711509918782e-05
 Sym= A
 Ene=               1
 Spin= Alpha
 Occup=    1.00000
   1    -0.0002092574887756
   2    7.8019644721874e-05
   3    0.0031678075106292
   4    0.00047620867116366
   5    4.4907050475075e-10
   6    -9.1504088538982e-06
   7    0.0015378525461342
   8    1.3788776173718e-10
   9    0.00044342763093418
  10    -4.0530390857426e-05
  11    9.5407942485533e-05
  12    -5.1801734487516e-11
  13    8.3920166368384e-05
  14    -1.5221403690322e-10
  15         1.00191034907
  16    0.0042192116190291
  17    -0.007394716780548
  18    0.00059151199420982
  19    -2.8968516571017e-09
  20    -0.001121270966293
  21    0.0015864290517571
  22    -4.0269234281871e-10
  23    -0.00074316285396002
  24    -8.318668027576e-05
  25    -0.00011498646880933
  26    5.0874989375461e-10
  27    -0.00033447242799044
  28    -3.5737775996914e-10
  29    0.00097210713789629
  30    0.0015387547598506
  31    -0.00022315326531571
  32    -7.3476796516647e-11
  33    -6.6128690641385e-05
  34    0.00015383934407645
  35    0.00067286901404845
  36    -0.00014270373734158
  37    -7.2856230283336e-05
  38    0.00030679127512314
  39    0.00014223889749795
  40    0.0001323881162703
  41    -0.00078009234603446
  42    -0.00040332740783443
  43    4.1303653369807e-05
  44    2.9648800752608e-05
  45    -0.0001147549254325
  46    8.7067628280338e-05
  47    7.0711394756524e-05
  48    0.00015383866016671
  49    0.00067286603125623
  50    -0.00014270609636877
  51    -7.2854818254304e-05
  52    -0.00030678685557672
  53    0.0001422354293477
  54    0.00013238891420566
  55    0.00078009506721007
  56    -0.00040332953558257
  57    4.1303647050522e-05
  58    2.9648888329007e-05
  59    0.0001147551083115
  60    8.7067710574807e-05
  61    -7.0711503424213e-05
  62    -5.0514037985759e-06
  63    -5.5234807591585e-07
  64    -0.00016695338832411
  65    2.8136219815786e-06
  66    1.1187358114072e-05
  67    8.348088126808e-06
  68    8.2607799298379e-05
  69    -9.1573082353853e-05
  70    -3.9657565652745e-05
  71    -1.8167821289198e-05
  72    -1.2316900905447e-05
  73    -1.35678417531e-05
  74    2.3690103161946e-05
  75    1.0437708160938e-05
  76    -5.0617438357396e-05
  77    0.00043880066222536
  78    9.8268723065384e-05
  79    -4.9281861528491e-12
  80    2.0819127330461e-05
  81    -5.0515745376306e-06
  82    -5.5506409667019e-07
  83    -0.00016695673608822
  84    2.8134530468803e-06
  85    -1.1188194478243e-05
  86    8.3453125354488e-06
  87    8.2607637756832e-05
  88    9.1572581659364e-05
  89    -3.9659438463385e-05
  90    -1.816778854622e-05
  91    -1.2316923329394e-05
  92    1.3567895258147e-05
  93    2.3690088773122e-05
  94    -1.043771421267e-05
 Sym= A
 Ene=               2
 Spin= Alpha
 Occup=    1.00000
   1    4.3833465275248e-05
   2    4.7547751147654e-05
   3    -0.0012548266342307
   4    -0.00014312623279912
   5    2.4328565432662e-05
   6    -1.7627021251017e-05
   7    -0.00067986101349018
   8    -0.0001683741875788
   9    0.00022316514463925
  10    2.1432239517829e-05
  11    1.8855620188782e-05
  12    -3.1385126643968e-05
  13    -8.2260328479125e-05
  14    -1.1913333895802e-06
  15    -0.00016588686563169
  16    0.00037899316476259
  17    0.0035162057496333
  18    0.0004291464505935
  19    0.00089383066559848
  20    -0.00055956029305816
  21    -0.00017867211374366
  22    0.0012184205593628
  23    -0.0010796267833222
  24    -3.2846779855744e-05
  25    -6.1784152130275e-05
  26    -0.00010530235484985
  27    -5.9524391536217e-05
  28    8.5462192022111e-05
  29    -0.00022516734977104
  30    -7.5607816382884e-05
  31    -8.4065750124761e-06
  32    -0.00013621152337023
  33     9.18331464788e-05
  34    8.5982012450113e-05
  35    0.0001394759791029
  36    -0.0006307898415767
  37    4.6633065550082e-06
  38    -4.0504914506664e-05
  39    -4.3419294806725e-05
  40    2.5989543529272e-05
  41    -0.00040492307736075
  42    0.00014808099961737
  43    1.763260583379e-05
  44    -1.2142719608323e-05
  45    -1.0502897921541e-06
  46    1.4364373740302e-05
  47    1.0930724714649e-05
  48       1.0010268179041
  49    0.00041931918317237
  50    -0.0062222479379154
  51    -0.00083979804316502
  52    -0.002168241485832
  53    0.0013069562385818
  54    0.00021063091591443
  55    0.00038272445511815
  56    -0.00016942513545681
  57    1.1971340187431e-05
  58    3.9995768906451e-05
  59    8.0782633858668e-05
  60    6.6142198273271e-05
  61    -5.6045841887514e-05
  62    -2.5482300599562e-05
  63    -4.4872237785561e-05
  64    0.00011639384380398
  65    -2.1113594021684e-05
  66    1.0624463394094e-05
  67    3.3704601480535e-07
  68    0.00018053432503065
  69    1.1217722637062e-05
  70    -2.583505673536e-05
  71    1.2319643492681e-06
  72    3.4044524194029e-06
  73    1.4034949295334e-06
  74    2.8598828936054e-06
  75    -2.5305411474281e-06
  76    8.5384994359529e-05
  77    -9.7610037151816e-05
  78    -5.9097098815118e-05
  79    -1.2669824247148e-05
  80    -6.8792409127871e-06
  81    2.6296400833847e-05
  82    5.2341175655846e-05
  83    -4.3643427132619e-05
  84    1.9734277638446e-05
  85    -1.3692281734803e-06
  86    1.5741815538632e-05
  87    -7.2416500111018e-05
  88    -6.9762537227819e-06
  89    -2.4035941285377e-05
  90    8.2189905566474e-06
  91    1.1267029401317e-05
  92    -2.0874762284288e-06
  93    -1.7587523280535e-05
  94    5.895299649628e-07
 Sym= A
 Ene=               3
 Spin= Alpha
 Occup=    1.00000
   1    -0.00016633414531755
   2    0.00037554591226706
   3    0.0035151886060089
   4    -0.00042761548981427
   5    -0.00088997430364074
   6    0.00055715004142873
   7    0.00017852048345261
   8    -0.0012182001853889
   9    0.0010799958061605
  10    -3.2822622182604e-05
  11    -6.1704360018863e-05
  12    -0.00010502989290536
  13    -5.9452800969533e-05
  14    8.5311334731542e-05
  15    4.3791282209579e-05
  16    4.7456346971965e-05
  17    -0.0012544384308215
  18    0.00014309691240401
  19    -2.4081436640353e-05
  20    1.7405245816142e-05
  21    0.00067938215618481
  22    0.00016830799765939
  23    -0.00022374910617565
  24    2.1459891071484e-05
  25    1.8972531257074e-05
  26    -3.1364133678216e-05
  27    -8.2317167249301e-05
  28    -1.3621342167248e-06
  29    8.5336765135118e-05
  30    -9.7103640865315e-05
  31    5.9100576163053e-05
  32    1.2689699648999e-05
  33    6.8765869686485e-06
  34    2.6322041992821e-05
  35    5.2374613245388e-05
  36    -4.3892049042328e-05
  37    -1.9693284843072e-05
  38    1.4173817150331e-06
  39    -1.5727451430607e-05
  40    7.2507107417101e-05
  41    6.8973639018351e-06
  42    2.4096283258014e-05
  43    8.2176525283657e-06
  44    1.1270852737042e-05
  45    -2.0930428665798e-06
  46    -1.7588043352864e-05
  47    5.8941666633552e-07
  48    -2.5495407342729e-05
  49    -4.4930691287795e-05
  50    0.00011626795471798
  51    2.1238153157388e-05
  52    -1.055769408706e-05
  53    -3.5501037675317e-07
  54    -0.00018042783134773
  55    -1.1145197484251e-05
  56    2.5903355977243e-05
  57    1.2282542102803e-06
  58    3.4008009625263e-06
  59    1.397271820997e-06
  60    2.8637934368282e-06
  61    -2.5239846485741e-06
  62       1.0010268605131
  63    0.00043837556541777
  64    -0.006199743217699
  65    0.00083573805661979
  66     0.002156332414778
  67    -0.0012997875242743
  68    -0.00021328555901058
  69    -0.00039069243195065
  70    0.00017419868125966
  71    1.2023819515286e-05
  72    4.0106804827517e-05
  73    8.1063858805007e-05
  74    6.6341358508714e-05
  75    -5.62233361987e-05
  76    -0.000225151545684
  77    -7.4781618714882e-05
  78    8.4946064077986e-06
  79    0.00013634700999075
  80    -9.1922113968301e-05
  81    8.6005040048273e-05
  82    0.00013960267407935
  83    -0.00063079499639414
  84    -4.6199149685368e-06
  85    4.0245741918346e-05
  86    4.3324438090047e-05
  87    -2.597840102789e-05
  88    0.00040468918506053
  89    -0.000148130341226
  90    1.7676257503207e-05
  91    -1.2164342887731e-05
  92    -1.0560893025213e-06
  93    1.4419671049016e-05
  94    1.0934223573289e-05
 Sym= A
 Ene=               4
 Spin= Alpha
 Occup=    1.00000
   1    -0.00016524625785134
   2    0.00038396349197221
   3    0.0035176820852882
   4    -0.00043135267452869
   5    0.00089940063210172
   6    0.00056303840624631
   7    0.00017893482866986
   8    0.0012187256904319
   9    0.0010790954499115
  10    -3.2862142470625e-05
  11    -6.1882446088483e-05
  12    0.00010571065001992
  13    -5.9652853614331e-05
  14    -8.5643620588611e-05
  15    4.389065869823e-05
  16    4.7632350773391e-05
  17    -0.001255482604116
  18    0.00014322924683259
  19    2.468795241261e-05
  20    1.7940096583867e-05
  21    0.00068058687984358
  22    -0.00016843450367941
  23    -0.00022232067322399
  24    2.1392279061117e-05
  25    1.8687559727732e-05
  26    3.1418610363159e-05
  27    -8.2181050970497e-05
  28    9.4576776991009e-07
  29    8.5445232327053e-05
  30    -9.8312952919932e-05
  31    5.9091204198539e-05
  32    -1.2641738322277e-05
  33    6.8835418079774e-06
  34    -2.5465690829031e-05
  35    -4.4780255163763e-05
  36    0.00011661047456965
  37    2.0920564838092e-05
  38    1.0726908668045e-05
  39    -3.028445204941e-07
  40    -0.0001807008362294
  41    1.1331419858473e-05
  42    2.5747725614225e-05
  43    1.2375521387886e-06
  44    3.4102949856602e-06
  45    -1.412256455663e-06
  46    2.8535515205658e-06
  47    2.5407705275166e-06
  48    2.6260177474807e-05
  49    5.2292859082397e-05
  50    -4.3289395051653e-05
  51    -1.9792861272405e-05
  52    -1.3023087213602e-06
  53    -1.5767976357914e-05
  54    7.2280756436259e-05
  55    -7.0926404994541e-06
  56    2.3943729796236e-05
  57    8.2208542351353e-06
  58    1.1261506454032e-05
  59    2.0798784887158e-06
  60    -1.7586687071023e-05
  61    -5.9067792132928e-07
  62    8.5950946995389e-05
  63    0.00013931060116664
  64    -0.000630763940828
  65    -4.7267131596859e-06
  66    -4.0856382761558e-05
  67    4.3541031805519e-05
  68    -2.6009352011505e-05
  69    -0.00040524227597448
  70    -0.00014801875616788
  71    1.7570144576102e-05
  72    -1.2111154900534e-05
  73    1.0416540508733e-06
  74    1.4283852286603e-05
  75    -1.0924881383484e-05
  76    -0.0002251393893471
  77    -7.674971505712e-05
  78    8.2773952053337e-06
  79    -0.00013601277418732
  80    -9.1703476309196e-05
  81       1.0010267507757
  82    0.0003918259878068
  83    -0.006254698137068
  84    0.00084642853719728
  85    -0.0021853089955956
  86    -0.0013169969525251
  87    -0.00020626328887464
  88    0.00037130455191584
  89    0.00016274557952682
  90    1.189012022016e-05
  91    3.9829726030512e-05
  92    -8.0383080962889e-05
  93    6.5862613194848e-05
  94    5.5777129488141e-05
 Sym= A
 Ene=               5
 Spin= Alpha
 Occup=    1.00000
   1    4.3796387052187e-05
   2    4.7463714392511e-05
   3    -0.0012544983251486
   4    -0.00014310612266052
   5    -2.4113041952618e-05
   6    -1.7431836135435e-05
   7    -0.00067944589894368
   8    0.00016831259329701
   9    0.00022367595520709
  10    2.1456371556706e-05
  11    1.8957826637834e-05
  12    3.1367132456707e-05
  13    -8.2310287850239e-05
  14    1.3406547415724e-06
  15    -0.00016627781993873
  16    0.00037598302997883
  17     0.003515319872203
  18    0.00042781001992669
  19    -0.00089046177425035
  20    -0.00055745547459988
  21    -0.00017854371909491
  22    -0.001218224610666
  23    -0.0010799505827451
  24    -3.2822065589632e-05
  25    -6.1713323814939e-05
  26    0.0001050667766831
  27    -5.9462920847169e-05
  28    -8.5327010478551e-05
  29    -0.00022514572696853
  30    -7.4879511177808e-05
  31    -8.4831873401838e-06
  32    0.00013632942111031
  33    9.1910697577038e-05
  34       1.0010268550215
  35    0.00043595775524253
  36    -0.0062025965914641
  37    -0.00083632055474285
  38    0.0021578510078097
  39    0.0013006370775826
  40    0.00021290182741641
  41    -0.00038967590522738
  42    -0.00017363435018009
  43    1.2016105322188e-05
  44    4.0092509666282e-05
  45    -8.10291328947e-05
  46    6.6316459503819e-05
  47    5.6199606579419e-05
  48    8.6003988978965e-05
  49    0.00013958751193273
  50    -0.0006307954122142
  51    4.6258374133953e-06
  52    4.0278478123377e-05
  53    -4.3337207941856e-05
  54    2.5980540983424e-05
  55    0.00040471903169605
  56    0.00014812326109734
  57    1.7670794509683e-05
  58    -1.2161579555942e-05
  59    1.0553875561707e-06
  60    1.4412588076986e-05
  61    -1.0933728784903e-05
  62    2.6319299321462e-05
  63    5.2370329088728e-05
  64    -4.3861378357214e-05
  65    1.9698556188814e-05
  66    1.4114518163521e-06
  67    1.5728505743631e-05
  68    -7.2495224883067e-05
  69    6.907668036954e-06
  70    -2.4089050558641e-05
  71    8.217830657012e-06
  72    1.1270378616105e-05
  73    2.0923529833022e-06
  74    -1.7587999836951e-05
  75    -5.8950226856634e-07
  76    8.5341593650744e-05
  77    -9.7164279632688e-05
  78    -5.9100004627469e-05
  79    1.2687227708709e-05
  80    -6.8769658653567e-06
  81    -2.5493984398238e-05
  82    -4.4922737815509e-05
  83    0.00011628712601808
  84    -2.1220107652724e-05
  85    -1.0566996287985e-05
  86    3.5226723360174e-07
  87    0.00018044310477999
  88    -1.1155461884045e-05
  89    -2.589565974866e-05
  90    1.2287227054244e-06
  91    3.4013140212012e-06
  92    -1.3980439766732e-06
  93    2.8632367809377e-06
  94    2.5248548048097e-06
 Sym= A
 Ene=               6
 Spin= Alpha
 Occup=    1.00000
   1    -0.0027383603321964
   2    -0.0029198754915827
   3     0.013844871049981
   4    0.00029725398362544
   5    0.0019204745641144
   6    0.00025744672884706
   7     0.032087184707453
   8     0.021623549236551
   9    0.0095977396785695
  10     0.023989001945103
  11     0.010132851032918
  12    -0.017606260865813
  13    -0.011097644275313
  14    -0.026030720783247
  15    -0.0020539864017944
  16    -0.032527312506436
  17    -0.078176958760186
  18     0.043753786785771
  19    -0.0017553058782891
  20    -0.0076442751583731
  21     0.024586415393822
  22    -0.028278590996039
  23    -0.0040941988475791
  24    0.00010232363583186
  25    0.00067234739670078
  26    -0.0021874972488557
  27    -0.0019783331961071
  28    -0.00062536983358073
  29    -0.0069883160877044
  30     0.025895871057959
  31    -0.00099874386263785
  32    0.00032837349537669
  33    0.00019678158888392
  34    0.00047902261317512
  35    0.00051372393169983
  36    -0.0048582756842626
  37    -0.00047095465492431
  38    0.0022457525799014
  39    -0.0022552152909213
  40    -0.0034584275558208
  41    0.0027461515706994
  42    -0.0025558000840803
  43    -1.9194849193697e-05
  44    9.5208856508811e-05
  45    -0.00025015459922017
  46    -0.00011161787638009
  47    0.00061998431062043
  48    -0.0013811852457981
  49    0.0016159809950869
  50     0.021423683226581
  51    -0.0078203869240277
  52    -0.0073378052431335
  53     0.007158071929624
  54    -0.0073522628584744
  55    -0.0087200344483182
  56    0.0095457102408823
  57    0.00011811484667133
  58    0.00045188472680357
  59    -0.00020197899531488
  60    -0.00055222339525371
  61    -0.00051380217273395
  62    -0.0016080597366744
  63    0.00074578842243709
  64     0.014337172210199
  65      0.53949236337892
  66     0.026427228619591
  67      0.39417640765002
  68      0.37522496688874
  69     0.020341506784794
  70      0.27162284730142
  71    -0.0070952293921273
  72    -0.0024737328691249
  73    0.0064123357895952
  74    0.0035634655976896
  75    0.0095604756248509
  76     0.051507429267562
  77     0.048138898533749
  78    -0.0019487385449144
  79    -0.0031167895600671
  80    0.00078536240132983
  81    0.00086023621753241
  82    0.00029451252198559
  83     -0.01048383041756
  84    -0.0029948405107183
  85    0.0023277053048933
  86    -0.0014177657982277
  87    -0.0050891239997317
  88    0.0021409810511866
  89    0.00059339649268585
  90    0.00060031506709283
  91    0.00023687910858856
  92    -0.00030682064894656
  93    -0.00036577494420532
  94    -0.00032989704345412
 Sym= A
 Ene=               7
 Spin= Alpha
 Occup=    1.00000
   1    -0.0027395021976765
   2    -0.0029287434707426
   3     0.013842459990387
   4    0.00030117496871995
   5    -0.0019312482858569
   6    0.0002512237774971
   7     0.032086492508321
   8    -0.021624562007538
   9    0.0095990631287305
  10     0.023989319768763
  11     0.010132848727672
  12     0.017605630770149
  13    -0.011097005971234
  14     0.026030916295706
  15    -0.0020540485821868
  16     -0.03252715406877
  17    -0.078175601007118
  18       0.0437531884748
  19    0.0017546805092861
  20    -0.0076448876378954
  21     0.024584853448758
  22     0.028278635978923
  23    -0.0040959541287972
  24    0.00010238858840968
  25     0.000672662204527
  26    0.0021874056010519
  27    -0.0019784669845865
  28    0.00062582655130311
  29    -0.0069884035030154
  30     0.025897229392011
  31    -0.00099874539060172
  32    -0.00032841688714275
  33    0.00019676591832397
  34    -0.0013812137521727
  35    0.0016158036610578
  36     0.021423183724433
  37    -0.0078199171957992
  38    0.0073374551350191
  39    0.0071580594822391
  40    -0.0073518300511408
  41    0.0087197044370981
  42    0.0095459042497471
  43    0.00011810426531826
  44    0.00045187177891069
  45    0.00020199339432683
  46    -0.00055220532084079
  47    0.00051377907074557
  48    0.00047910071316443
  49    0.00051389450797809
  50    -0.0048588872733309
  51    -0.00047099817324082
  52    -0.0022458497510906
  53    -0.0022550194864238
  54    -0.0034582208958791
  55    -0.0027459427347944
  56    -0.0025555256159337
  57    -1.9196140844111e-05
  58    9.5220451583607e-05
  59    0.00025016277825135
  60    -0.00011162449304712
  61    -0.00061997048375277
  62    0.00086031889365925
  63    0.00029467625901176
  64    -0.010484494937402
  65    -0.0029948469365646
  66    -0.0023274446101693
  67    -0.0014177242395615
  68    -0.0050892013010438
  69    -0.0021408092539246
  70    0.00059349611835185
  71    0.00060043156437891
  72      0.00023681331691
  73    0.00030684088343777
  74    -0.00036563064891393
  75    0.00032988193306594
  76     0.051507707846177
  77     0.048141174796525
  78    -0.0019485074915368
  79    0.0031164322993541
  80    0.00078511955800044
  81    -0.0016066252936799
  82    0.00079550589441898
  83     0.014395824734528
  84      0.53947559782842
  85    -0.026400979732312
  86      0.39420024107162
  87      0.37521375494614
  88    -0.020324034192568
  89       0.2716388428251
  90    -0.0070951801302512
  91    -0.0024733287667426
  92    -0.0064131141874234
  93    0.0035638542146209
  94    -0.0095599373035722
 Sym= A
 Ene=               8
 Spin= Alpha
 Occup=    1.00000
   1    0.0020539727465738
   2     0.032527242710516
   3     0.078176901592629
   4     0.043753688281692
   5    0.0017552861810649
   6    -0.0076442995090921
   7     0.024586323253319
   8     0.028278583020972
   9    -0.0040942865062019
  10    -0.0001023299846428
  11    -0.00067234669928929
  12    -0.0021874988400152
  13    0.0019783293985112
  14    -0.00062537573606145
  15    0.0027383558387029
  16    0.0029197599615813
  17    -0.013844904188895
  18    0.00029711350574798
  19    -0.0019205692997713
  20    0.00025759040130607
  21     0.032087071360389
  22    -0.021623735266583
  23     0.009597892102598
  24    -0.023989113769094
  25    -0.010132769201667
  26     -0.01760634852608
  27     0.011097513682101
  28     -0.02603064949414
  29    -0.051507542620473
  30    -0.048138985314684
  31    -0.0019487420866816
  32    0.0031167963715589
  33    0.00078536350120153