[Molden Format]
made by pyscf v[2.0.1]
[Atoms] (AU)
C   1   6     0.00000000000000     0.00000000000000     0.00000000000000
C   2   6     2.85272299873892     0.00000000000000     0.00000000000000
H   3   1     3.62066923017674     0.00000000000000     1.90331545357504
F   4   9     3.65943188126013    -2.04308229183900    -1.24074875274501
F   5   9     3.65943188126013     2.04308229183900    -1.24074875274501
F   6   9    -0.80670888252121     2.09606108551054    -1.14898679038220
H   7   1    -0.76794623143782    -1.64831953421148    -0.95165772678752
F   8   9    -0.80670888252121     0.05297879367154     2.38973554312721
[GTO]
1 0
 s    8 1.00
                  6665  0.00069158396281299
                  1000  0.0053257961529341
                   228   0.027060721042034
                 64.71    0.10165684614077
                 21.06     0.2745748236174
                 7.495    0.44829431892377
                 2.797    0.28490261071525
                0.5215   0.015194859206082
 s    8 1.00
                  6665  -0.00029326965268655
                  1000  -0.0023180354739745
                   228  -0.011499786038565
                 64.71  -0.046826727009787
                 21.06   -0.12846616875047
                 7.495   -0.30126627246289
                 2.797   -0.25563070233011
                0.5215      1.093793361012
 s    1 1.00
                0.1596                   1
 p    3 1.00
                 9.439   0.056979251590039
                 2.002    0.31320721150073
                0.5456    0.76037674173753
 p    1 1.00
                0.1517                   1
 d    1 1.00
                  0.55                   1

2 0
 s    8 1.00
                  6665  0.00069158396281299
                  1000  0.0053257961529341
                   228   0.027060721042034
                 64.71    0.10165684614077
                 21.06     0.2745748236174
                 7.495    0.44829431892377
                 2.797    0.28490261071525
                0.5215   0.015194859206082
 s    8 1.00
                  6665  -0.00029326965268655
                  1000  -0.0023180354739745
                   228  -0.011499786038565
                 64.71  -0.046826727009787
                 21.06   -0.12846616875047
                 7.495   -0.30126627246289
                 2.797   -0.25563070233011
                0.5215      1.093793361012
 s    1 1.00
                0.1596                   1
 p    3 1.00
                 9.439   0.056979251590039
                 2.002    0.31320721150073
                0.5456    0.76037674173753
 p    1 1.00
                0.1517                   1
 d    1 1.00
                  0.55                   1

3 0
 s    3 1.00
                 13.01   0.033498726389998
                 1.962    0.23480080117413
                0.4446     0.8136829578829
 s    1 1.00
                 0.122                   1
 p    1 1.00
                 0.727                   1

4 0
 s    8 1.00
                 14710  0.00072067370873197
                  2207  0.0055504869689163
                 502.8   0.028254207662589
                 142.6    0.10639582836653
                 46.47    0.28668420124307
                  16.7    0.44843796582416
                 6.356    0.26464118141135
                 1.316   0.015326060993048
 s    8 1.00
                 14710  -0.00032119389049893
                  2207  -0.0025461915683188
                 502.8  -0.012643359507821
                 142.6   -0.05195749170489
                 46.47   -0.14344713812646
                  16.7   -0.33243762329603
                 6.356   -0.21865906750347
                 1.316     1.0955904138622
 s    1 1.00
                0.3897                   1
 p    3 1.00
                 22.67   0.064834021493887
                 4.977    0.34053535983101
                 1.347    0.73464640679382
 p    1 1.00
                0.3471                   1
 d    1 1.00
                  1.64                   1

5 0
 s    8 1.00
                 14710  0.00072067370873197
                  2207  0.0055504869689163
                 502.8   0.028254207662589
                 142.6    0.10639582836653
                 46.47    0.28668420124307
                  16.7    0.44843796582416
                 6.356    0.26464118141135
                 1.316   0.015326060993048
 s    8 1.00
                 14710  -0.00032119389049893
                  2207  -0.0025461915683188
                 502.8  -0.012643359507821
                 142.6   -0.05195749170489
                 46.47   -0.14344713812646
                  16.7   -0.33243762329603
                 6.356   -0.21865906750347
                 1.316     1.0955904138622
 s    1 1.00
                0.3897                   1
 p    3 1.00
                 22.67   0.064834021493887
                 4.977    0.34053535983101
                 1.347    0.73464640679382
 p    1 1.00
                0.3471                   1
 d    1 1.00
                  1.64                   1

6 0
 s    8 1.00
                 14710  0.00072067370873197
                  2207  0.0055504869689163
                 502.8   0.028254207662589
                 142.6    0.10639582836653
                 46.47    0.28668420124307
                  16.7    0.44843796582416
                 6.356    0.26464118141135
                 1.316   0.015326060993048
 s    8 1.00
                 14710  -0.00032119389049893
                  2207  -0.0025461915683188
                 502.8  -0.012643359507821
                 142.6   -0.05195749170489
                 46.47   -0.14344713812646
                  16.7   -0.33243762329603
                 6.356   -0.21865906750347
                 1.316     1.0955904138622
 s    1 1.00
                0.3897                   1
 p    3 1.00
                 22.67   0.064834021493887
                 4.977    0.34053535983101
                 1.347    0.73464640679382
 p    1 1.00
                0.3471                   1
 d    1 1.00
                  1.64                   1

7 0
 s    3 1.00
                 13.01   0.033498726389998
                 1.962    0.23480080117413
                0.4446     0.8136829578829
 s    1 1.00
                 0.122                   1
 p    1 1.00
                 0.727                   1

8 0
 s    8 1.00
                 14710  0.00072067370873197
                  2207  0.0055504869689163
                 502.8   0.028254207662589
                 142.6    0.10639582836653
                 46.47    0.28668420124307
                  16.7    0.44843796582416
                 6.356    0.26464118141135
                 1.316   0.015326060993048
 s    8 1.00
                 14710  -0.00032119389049893
                  2207  -0.0025461915683188
                 502.8  -0.012643359507821
                 142.6   -0.05195749170489
                 46.47   -0.14344713812646
                  16.7   -0.33243762329603
                 6.356   -0.21865906750347
                 1.316     1.0955904138622
 s    1 1.00
                0.3897                   1
 p    3 1.00
                 22.67   0.064834021493887
                 4.977    0.34053535983101
                 1.347    0.73464640679382
 p    1 1.00
                0.3471                   1
 d    1 1.00
                  1.64                   1

[5d]
[7f]
[9g]

[MO]
 Sym= A
 Ene=               0
 Spin= Alpha
 Occup=    1.00000
   1    -0.00023105078986711
   2    3.5274669680801e-05
   3    0.0032794445734572
   4    0.00047206694169583
   5    -1.1480340735068e-05
   6    1.5200684969283e-05
   7    0.0016072187004417
   8    0.00029273228589033
   9    0.00030896923137823
  10    -1.9011285074453e-05
  11    0.00010910522345092
  12    -1.9010376760208e-05
  13    7.9664502294799e-05
  14    -1.4291352329271e-05
  15       1.0019144561529
  16    0.0042353389047109
  17    -0.0074812718595538
  18    0.00056511233661595
  19    -5.5207112687426e-05
  20    -0.0011149358938373
  21    0.0015851816420863
  22    -0.00010912706854774
  23    -0.00068213461801298
  24    -8.1840755391561e-05
  25    -0.00011380222230416
  26    8.774749490628e-06
  27    -0.00033251626647761
  28    3.4161323184228e-06
  29    0.00095765794889334
  30    0.0015479002401637
  31    -0.00021926985222935
  32    1.1478542758564e-05
  33    -7.2778457136172e-05
  34    0.00016090627860502
  35    0.00068705111573897
  36    -0.00018160480547044
  37    -7.3876964033262e-05
  38    0.00030094485422265
  39    0.0001449083365249
  40    0.00014955794468697
  41    -0.00076799702468202
  42    -0.00042995260035322
  43    4.0925926556321e-05
  44    3.1719649363548e-05
  45    -0.00011789776102577
  46    8.6544717761471e-05
  47    7.3401190173888e-05
  48    0.00014278688113782
  49    0.00065048207954642
  50    -5.9450533232609e-05
  51    -8.1696281030415e-05
  52    -0.00030603346119322
  53    0.00014346449459386
  54    0.00015495549355563
  55    0.00074882340536272
  56    -0.00039351925506404
  57    4.2303709411514e-05
  58    2.9731438209537e-05
  59    0.00011078669574552
  60    8.1955142379771e-05
  61    -6.9022809752722e-05
  62    -7.3617276667455e-06
  63    -4.5798281319853e-07
  64    -0.00014856198335296
  65    2.2122976411488e-05
  66    -4.8402033511467e-06
  67    1.3758437974084e-05
  68    7.6566955254531e-05
  69    4.4602843497864e-05
  70    -8.2674834831513e-05
  71    -1.986609347505e-05
  72    8.1044378560719e-06
  73    -4.1926327592232e-06
  74    2.9782862829568e-05
  75    -1.5676605229732e-05
  76    -3.0430101925676e-05
  77    0.00041363422963812
  78    9.7041510773741e-05
  79    3.434372614263e-05
  80    2.3825014219898e-05
  81    1.4418765331411e-05
  82    3.1265780193386e-05
  83    -0.00028027979282736
  84    -2.9272578001805e-06
  85    9.5483544000521e-06
  86    7.1061679050423e-06
  87    -5.9213295513258e-06
  88    -3.563808632847e-05
  89    2.7256059714088e-05
  90    2.946948747009e-06
  91    -1.0480086093435e-05
  92    3.842622747018e-06
  93    2.6724623622631e-05
  94    -1.7596126012704e-06
 Sym= A
 Ene=               1
 Spin= Alpha
 Occup=    1.00000
   1       1.0019144557631
   2    0.0042353370395769
   3    -0.0074812911056733
   4    -0.0005651880718576
   5    0.00093795780382885
   6    0.00060528014478583
   7    -0.0015852051805908
   8    0.00053617930921628
   9    0.0004355711946201
  10    0.00023278995893088
  11    -5.3944323558361e-05
  12    -0.00020097701138996
  13    -0.00015087108633376
  14    -0.00010026626730364
  15    -0.00023105102213435
  16    3.5242008214679e-05
  17    0.0032794279949803
  18    -0.00047201179896517
  19    -1.8903061647307e-05
  20    2.344856929944e-06
  21    -0.0016072050286024
  22    -0.00012120756091312
  23    -0.00040799584952073
  24    -6.362264537414e-05
  25    4.2175727557315e-05
  26    1.0731876853345e-05
  27    5.3902362281662e-05
  28    0.00010163321306381
  29    -3.0423662796807e-05
  30    0.00041364250237679
  31    -9.7040236875522e-05
  32    -3.4612470859473e-06
  33    -4.165512330964e-05
  34    1.4418748155294e-05
  35    3.1263822757692e-05
  36    -0.00028027898689268
  37    2.9202894180243e-06
  38    -1.3775357409904e-06
  39    -1.1822336711088e-05
  40    5.9130912628511e-06
  41    -4.1421378815328e-05
  42    1.7235304557034e-05
  43    -1.4844381188343e-05
  44    -6.7635700398955e-06
  45    1.5703617546615e-05
  46    1.6452494841206e-05
  47    -8.1956915002555e-06
  48    -7.3617255574894e-06
  49    -4.5778126424771e-07
  50    -0.00014855966951716
  51    -2.2138062451895e-05
  52    -1.4336936606836e-05
  53    -2.686607250229e-06
  54    -7.6581005129918e-05
  55    9.3898516383086e-05
  56    2.7105261007996e-06
  57    -2.0005566752619e-05
  58    -9.523902798828e-06
  59    -4.0995957324573e-06
  60    2.9702009506693e-05
  61    1.4856593130036e-05
  62    0.00014278669233292
  63    0.00065049417758926
  64    -5.943663939958e-05
  65    8.1684196997308e-05
  66    -0.00027728109434056
  67     0.000193324465467
  68    -0.00015495963531708
  69    0.00071519727283241
  70    -0.00045172427317059
  71    2.4570742417357e-05
  72    -4.4910005697186e-05
  73    0.0001226075703313
  74    7.1715695091929e-05
  75     6.02601761804e-05
  76    0.00095768182846514
  77    0.0015479113168058
  78    0.00021926932477112
  79    6.8769250206412e-05
  80    2.6449832259191e-05
  81    0.00016090567171794
  82    0.0006870664983872
  83    -0.00018158757458738
  84     7.38676645753e-05
  85    2.4984697736391e-05
  86    -0.00033311137971936
  87    -0.0001495608673656
  88    -1.1643633612213e-05
  89    0.00088006140779179
  90    -0.00014974971404786
  91    7.9427584926959e-05
  92    9.2205187834216e-06
  93    -2.3543332322329e-05
  94    -9.230509715312e-06
 Sym= A
 Ene=               2
 Spin= Alpha
 Occup=    1.00000
   1    7.956579891654e-05
   2    0.0001017384539082
   3    -0.0017631426775959
   4    -0.00011549128670822
   5    -2.1836928052172e-06
   6    4.6086759258445e-06
   7    -0.00081200740320378
   8    -0.00045031710452835
   9    0.00028322159686814
  10    -9.6280757540633e-06
  11    2.8021918984554e-05
  12    -4.8919913327603e-05
  13    -5.4595895852735e-05
  14    -2.1583801490068e-05
  15    -0.00020171520336178
  16    0.00026932675964284
  17    0.0038804576631457
  18    0.00039998172608774
  19    0.00082932079111038
  20    -0.00051969887277479
  21    -0.00029692334522142
  22    0.0012055672763083
  23    -0.0011122991305719
  24    -3.3920975299857e-05
  25    -5.3668375410604e-05
  26    -8.1490531905998e-05
  27    -5.8012150133555e-05
  28    5.5596205308972e-05
  29    -0.00025527741593182
  30    -8.3459004078288e-05
  31    -3.9319375890271e-06
  32    -0.00013079224774435
  33    0.00010193244286134
  34    0.00010281186679987
  35    0.00017217788303438
  36    -0.00073788386019377
  37    1.2212884832959e-06
  38    -3.7649354192545e-05
  39    -4.1183246555549e-05
  40    5.2868427416804e-05
  41    -0.00042870431474029
  42    0.00013055635619975
  43    1.7746389457671e-05
  44    -1.1262780522901e-05
  45    -3.7209756584296e-06
  46    1.7679157124164e-05
  47    1.2617098390858e-05
  48       1.0010253207704
  49    0.00075858207981898
  50    -0.0058218316085952
  51    -0.00069387481519403
  52    -0.0019574817844674
  53    0.0012117365953389
  54    0.00027432684037841
  55    0.00054789297277772
  56    -0.00023057471302135
  57    1.0766015776416e-05
  58    4.2610394363959e-05
  59    8.1887957934395e-05
  60    7.3801438643594e-05
  61    -6.2584587122946e-05
  62    -6.531731021089e-05
  63    -0.00013105495192593
  64    0.0003910979035751
  65    -2.9923021238322e-05
  66    2.856430460703e-05
  67    -1.3374387684554e-05
  68    6.6467002647078e-05
  69    -8.2506168467401e-05
  70    4.2667588116818e-05
  71    9.7519454845229e-06
  72    1.6295243772713e-06
  73    8.2337393861362e-06
  74    -9.4578778234273e-06
  75    1.1716195662827e-06
  76    0.00011001679442001
  77    -7.5484892989751e-05
  78    2.9391193196616e-05
  79    4.450467554164e-05
  80    -4.2983881625034e-05
  81    -1.3814300322581e-05
  82    -1.940627860346e-05
  83    0.00013408109917671
  84    3.5392980348602e-07
  85    -4.1626474009412e-06
  86    -1.5878652928406e-05
  87    0.00011905496629321
  88    5.1257166240478e-05
  89    -5.1895363794923e-05
  90    8.6572446230754e-06
  91    -5.021956701794e-06
  92    -1.3269409456905e-05
  93    -2.8142129761105e-06
  94    -1.7602473990319e-06
 Sym= A
 Ene=               3
 Spin= Alpha
 Occup=    1.00000
   1    -0.00020172320224391
   2    0.00026928833335619
   3    0.0038804689828438
   4    -0.00039997103806332
   5    0.00086467748362127
   6    -0.00045830603992401
   7    0.00029692444368148
   8      0.00156607025255
   9    -0.00048786358411396
  10    -1.9214188098849e-05
  11    2.1308705592244e-05
  12    -9.1289872316788e-05
  13    -4.9517074722308e-05
  14    -7.4280867246544e-05
  15    7.9566280594311e-05
  16    0.00010173910711987
  17    -0.0017631474776361
  18    0.00011548557104349
  19    -5.086372912683e-06
  20    -4.1542043202449e-07
  21    0.00081201037248411
  22    -0.00047044059432409
  23    0.00024837025343746
  24    -2.5540618316716e-08
  25    -4.6833865053259e-06
  26    -5.5322329669212e-05
  27    -4.9053000427737e-05
  28    3.5062648325786e-05
  29    0.00011001013169172
  30    -7.5491333319142e-05
  31    -2.9390790613636e-05
  32    5.9477588055249e-05
  33    -1.7049951790953e-05
  34    -1.3814655784827e-05
  35    -1.9408395189329e-05
  36    0.0001340789264319
  37    -3.4954306730696e-07
  38    1.167136412075e-05
  39    1.1543031815087e-05
  40    -0.00011905380343039
  41    7.057251168411e-05
  42    -1.8442695349179e-05
  43    -9.20651496865e-06
  44    -4.0355815201603e-06
  45    -1.3603478279968e-06
  46    -1.3127564453257e-05
  47    -3.4691641380975e-06
  48    -6.5317418292483e-05
  49    -0.00013105464838853
  50    0.0003911007102093
  51    2.9920547638307e-05
  52    2.5859550169051e-05
  53    -1.8050041366178e-05
  54    -6.6471030918805e-05
  55    -7.8205513553125e-05
  56    5.0120578914843e-05
  57    1.1099340549046e-05
  58    1.8290821914007e-06
  59    7.3355326442235e-06
  60    -8.6800294013759e-06
  61    8.2523156995833e-07
  62       1.0010253207626
  63    0.00075887670427134
  64    -0.0058214847340323
  65    0.00069373559240377
  66    -0.002027793626982
  67    0.0010896162740593
  68    -0.00027442178412245
  69    0.0004738625775084
  70    -0.00035902465568633
  71    1.214211314064e-05
  72    -3.289402136394e-05
  73    8.0974153682769e-05
  74    7.4597110710718e-05
  75    6.8199491217484e-05
  76    -0.00025525431777094
  77    -8.342668513878e-05
  78    3.9323808392248e-06
  79    -0.00015367342318295
  80    6.2303420029507e-05
  81    0.00010281328705534
  82    0.00017217787697764
  83    -0.0007379113074241
  84    -1.2281285840508e-06
  85    1.6845919133342e-05
  86    5.320739028904e-05
  87    -5.2875870434381e-05
  88    -0.00032741525409642
  89    0.00030600506479491
  90    -1.6492415810636e-05
  91    5.2951291185071e-06
  92    1.9105148368975e-05
  93    -2.0887449395411e-06
  94    -1.6062952656664e-05
 Sym= A
 Ene=               4
 Spin= Alpha
 Occup=    1.00000
   1    8.9655379018022e-05
   2    0.00012884464402602
   3    -0.0016516765455734
   4    -0.00014109058367918
   5    -3.6026543300935e-05
   6    -2.5414647404269e-05
   7    -0.00066133154174653
   8    0.00026554142485661
   9    0.00031418188374806
  10    -1.152037755392e-05
  11    3.4450821438153e-05
  12    7.3935392045178e-05
  13    -6.958088340986e-05
  14    3.4273932754215e-05
  15    -0.00018811897868474
  16    0.00026945186810036
  17    0.0036274959290937
  18    0.00038676910581574
  19    -0.00079312987349701
  20    -0.00049483210339895
  21    -0.00021150138337186
  22    -0.0011516237622807
  23    -0.0010987654377537
  24    -2.8848585126834e-05
  25    -4.8417904803813e-05
  26    8.9048069708592e-05
  27    -6.5133142526332e-05
  28    -6.195278963071e-05
  29    -0.00023516766467511
  30    -8.0640092944085e-05
  31    -5.4871255460592e-06
  32    0.00012795382430713
  33    0.00010271403345709
  34       1.0010222369621
  35    0.00091381406045301
  36    -0.0055979689350649
  37    -0.00073612990939106
  38    0.0018411738687541
  39    0.0011147277485204
  40    0.00026371053039101
  41    -0.00057798294737771
  42    -0.00027788202391227
  43    1.1725166512759e-05
  44    4.1258385279237e-05
  45    -8.4248440135517e-05
  46    7.4236343435207e-05
  47    5.8365768674995e-05
  48    0.00010064243054722
  49    0.00016940722461321
  50    -0.00071474759147231
  51    9.6986972734735e-07
  52    3.4086464781718e-05
  53    -4.0996678563731e-05
  54    4.5245081416278e-05
  55    0.00041269621382415
  56      0.00013623475658
  57    1.7940882532951e-05
  58    -1.1888194094357e-05
  59    3.0000879505724e-06
  60    1.6472776813894e-05
  61    -1.1940154102442e-05
  62    -1.4250279497767e-05
  63    -2.2073215554986e-05
  64    0.00016027269528943
  65    1.0476714038976e-05
  66    -8.1060761122314e-06
  67    6.329545647097e-06
  68    5.1274301381069e-05
  69    -7.0815856804702e-05
  70    5.3157684120367e-07
  71    -6.8710126704245e-06
  72    3.1532262658815e-06
  73    4.6043268918089e-06
  74    -1.5506673020899e-05
  75    -2.3703090000951e-07
  76    8.0114147554099e-05
  77    0.00012216628047705
  78    -3.2439279188646e-05
  79    2.757552344289e-07
  80    -1.6674352104403e-05
  81    -9.3467126302428e-06
  82    -1.1084580534032e-05
  83    0.00010287042555646
  84    1.7098490669289e-06
  85    -5.0686050850365e-06
  86    -1.481761782579e-05
  87    0.0001035221700489
  88    -7.5997998484833e-06
  89    -4.9377454406548e-05
  90    9.001407617144e-06
  91    -2.3880475874902e-06
  92    1.1700905564215e-05
  93    -2.1477948796746e-06
  94    1.7341084358755e-06
 Sym= A
 Ene=               5
 Spin= Alpha
 Occup=    1.00000
   1    -0.0001881683083153
   2    0.00026907729341841
   3    0.0036273769645015
   4    -0.00038659874979835
   5    3.1936289647879e-05
   6    0.00093381239894174
   7    0.00021151992346846
   8    0.00037576280636799
   9     0.001546741870231
  10    0.00011269161964098
  11    -7.7801692890721e-05
  12    -5.338948690195e-06
  13    1.6556608730887e-05
  14    -1.095522237965e-05
  15    8.9654404157759e-05
  16    0.0001287952481898
  17    -0.0016517955385136
  18    0.00014113977676167
  19    3.9944298695802e-06
  20    4.3852931453526e-05
  21    0.0006612727406457
  22    -0.00013933863428398
  23    -0.00038713915806889
  24    0.00010208993896575
  25    4.6930237499579e-05
  26    -1.8017516627722e-06
  27    -3.9934641385062e-06
  28    1.2702383268119e-05
  29    8.0091363638819e-05
  30    0.00012231373320691
  31    3.2430495637954e-05
  32    1.4578787591838e-05
  33    8.1020322577832e-06
  34    -9.3465973744728e-06
  35    -1.1084565919955e-05
  36    0.00010286492610917
  37    -1.7038553397877e-06
  38    1.0302705833682e-05
  39    1.1805255068499e-05
  40    -0.00010350946647162
  41    3.8972007080565e-05
  42    3.1283273136424e-05
  43    9.0449324028882e-06
  44    3.0813148241823e-07
  45    1.1671961091052e-05
  46    -2.122906622793e-06
  47    -2.9350061947668e-06
  48    -1.4251565654489e-05
  49    -2.2071129888088e-05
  50    0.0001602904382721
  51    -1.0484083617015e-05
  52    -9.5406743071706e-06
  53    3.8665715946815e-06
  54    -5.127203086237e-05
  55    -3.5877781103905e-05
  56    6.108320090214e-05
  57    1.4383508794986e-05
  58    1.3714818084716e-06
  59    -9.5661682136983e-06
  60    -3.2357750133924e-06
  61    2.8495097493343e-06
  62    0.0001006436280726
  63    0.0001694399241861
  64    -0.00071470387059893
  65    -9.6945494113589e-07
  66    5.2487367354626e-05
  67    -8.9513521230304e-06
  68    -4.5250754984067e-05
  69    8.8318129889304e-05
  70    -0.00042546143842677
  71    -1.0695730463014e-05
  72    -1.6284919854451e-05
  73    2.2094223821866e-05
  74    -5.8259057218202e-08
  75    -4.3269565666219e-06
  76    -0.00023514233504521
  77    -8.0528411026747e-05
  78    5.4949371746859e-06
  79    -2.4976287053823e-05
  80    -0.00016218473309325
  81       1.0010222345352
  82    0.00091578666759255
  83    -0.0055956281052041
  84    0.00073645244719932
  85    -4.4998980571362e-05
  86    -0.0021501409179856
  87    -0.00026346620089423
  88    -4.8483649264605e-05
  89    0.00064064748394764
  90    -0.00011291573275239
  91    7.1184711690629e-05
  92    -1.1823149266461e-06
  93    2.3033261431154e-06
  94    6.5458394449483e-06
 Sym= A
 Ene=               6
 Spin= Alpha
 Occup=    1.00000
   1    0.00090001363126512
   2     0.015659719990635
   3     0.027801773265372
   4    -0.015000691632239
   5     0.031214280860121
   6    -0.015981617629383
   7    -0.008852424034573
   8      0.04223592496972
   9    -0.022363296165771
  10    -0.0098296960702277
  11    -0.015535906697474
  12     0.035896919651594
  13    0.0085033547774649
  14    -0.0073042197595905
  15    0.0016003502109513
  16     0.018131031691334
  17     0.021088592535459
  18    -0.017452346110087
  19    0.00056321986662551
  20    0.0055632837457207
  21    0.0049251215844718
  22    0.0034951985020372
  23    0.0050847132506359
  24    -0.00026761014900161
  25    -1.4566993782824e-05
  26     0.000440620588453
  27    0.00032565243880116
  28    -0.00046814394911724
  29    0.0090165545773148
  30     -0.01286195641365
  31    0.0017644739390001
  32    0.00088150106648972
  33    -0.0015724687449728
  34    -0.00088382709513948
  35    -0.003231481850519
  36    -0.00010841222705661
  37    0.0030820845816056
  38    -0.002939905938746
  39    0.00021238209021554
  40    -0.0013420876431275
  41    -0.0032992818942006
  42    0.0005102606709855
  43    -7.139334414231e-05
  44    -0.00015786050741417
  45    5.0213662349798e-05
  46    0.00041673413991591
  47    -0.00037167466591837
  48    0.00097394929965649
  49    -0.0012162411433095
  50    -0.012717814010474
  51    0.0053818234907148
  52    0.0055589294472186
  53    -0.0047405159579637
  54    0.0076217575845623
  55    0.0060030844751642
  56    -0.0051485921127121
  57    0.00011275435980211
  58    1.8924166500982e-05
  59    0.00016711416069944
  60    0.00020912466135881
  61    3.1372256357177e-05
  62     0.001908722166584
  63    -0.013559680589938
  64    -0.051741185403167
  65    -0.0062268687125199
  66     0.032288554326819
  67    -0.033239580660968
  68    -0.0069271338110067
  69     0.030017812319681
  70      -0.0313993202177
  71    0.00041806887087531
  72    -0.00066604762129885
  73    0.00053815288668249
  74    -4.4437152392044e-05
  75    -0.00026807112200456
  76     0.025196730432091
  77     0.018903392252466
  78    -0.00061190259941558
  79    -0.00075416229082681
  80    0.0013535216068732
  81    0.00052389506617884
  82    0.00048114884172125
  83    -0.0020205222671741
  84     -0.29950794717215
  85       0.5799932071778
  86     -0.11567770481499
  87     -0.20870291629907
  88      0.40137217410215
  89    -0.078406258661391
  90    0.0045842647937069
  91    0.0053928775583355
  92    -0.011902686836354
  93    -0.0017906756938254
  94    0.0053332085493974
 Sym= A
 Ene=               7
 Spin= Alpha
 Occup=    1.00000
   1    0.00089114229471427
   2     0.026784565572739
   3     0.083604060873646
   4     0.048377302554366
   5    0.0041390008199708
   6    -0.0014167866498369
   7     0.053104288716476
   8    -0.015001168687882
   9    0.0070923355269218
  10    -0.00061876064282621
  11    -0.001440049170653
  12    0.00070117641473514
  13    0.00088164531368442
  14    0.0020520458475878
  15    0.0030353570336954
  16    0.00024176086543902
  17    -0.038709568698428
  18    0.0025976009475075
  19    -0.0017087803586448
  20    0.0025680457541655
  21     0.047815337693013
  22     0.019683579346285
  23    0.0086487401299641
  24    -0.023842899404649
  25    -0.010807384680025
  26      0.01765677922279
  27     0.011587540744625
  28     0.027243664316936
  29    -0.050768502455464
  30    -0.049509822519269
  31    -0.0020156122005376
  32    -0.0031490053689257
  33    0.00066492864351552
  34    -0.00094883411833855
  35    -0.00043089106883489
  36     0.011369497874433
  37    -0.0037763311502744
  38    0.0021915023305357
  39    -0.0015864100576805
  40    -0.0077863494063324
  41    0.0019292574469537
  42    0.0012582870559202
  43    -0.00054281167839388
  44    -0.0002797193219983
  45    0.00034115503040543
  46    0.00033133416339881
  47    0.0003501800688362
  48    0.00092305155130024
  49    0.0076004398026985
  50    -0.0011011461185749
  51      0.55163563384651
  52     0.024443229005889
  53      0.37924670234091
  54      0.38094942566261
  55     0.019556050527402
  56      0.26120773321871
  57    0.0068909284980595
  58    0.0031076400221365
  59    -0.0061680487384311
  60    -0.0032201758554293
  61    -0.0099869775248147
  62    0.00076703842271576
  63    0.0063843669819868
  64    0.0079905731588594
  65      0.01179191659842
  66    -0.001324072042283
  67    -0.0037437939784204
  68    0.00045553129181085
  69    -0.0032809879241102
  70    0.00046315695045433
  71    0.00057716778893883
  72    0.00099437631487944
  73    -0.00031603598557409
  74    -0.0014640010827621
  75    -0.0010296470701892
  76    -0.0088402787236216
  77    -0.012830270412975
  78    0.0024082996214975
  79    5.8747012515975e-05
  80    -0.0014834310953576
  81    0.00058467620089316
  82    -0.00065237384092703
  83    -0.0080947801070638
  84    -0.005174595986343
  85    0.00010790539537697
  86    0.0051869847442111
  87    -0.009379616136824
  88    0.0028141433835586
  89    0.0060681325010013
  90    -0.00039276268974273
  91    -0.00065746785608037
  92    -0.00018562151520437
  93    0.00016573610993634
  94    1.2618484111171e-05
 Sym= A
 Ene=               8
 Spin= Alpha
 Occup=    1.00000
   1    0.0012256206481642
   2     0.034233866622608
   3     0.089450540400038
   4     0.042659359426655
   5    -0.0090508377403448
   6    -0.006086426593059
   7     0.019976225068286
   8    0.0038485629119066
   9    0.0056874463648516
  10    -0.0004528654109383
  11    -0.0014221497483793
  12    -0.00076900628961025
  13      0.00132038034696
  14    -0.00069641628837353
  15    0.0030233065755941
  16     0.003949393571735
  17    -0.013110460699016
  18     0.001005292824535
  19    -0.00095929976519118
  20    -0.0010784545519528
  21     0.033470771561372
  22    -0.015177185829246
  23    0.0083188626896366
  24    -0.022776289350345
  25    -0.010618009082458
  26    -0.016759702601827
  27     0.012392703735271
  28    -0.026456309607479
  29    -0.050731360674027
  30    -0.048152720584761
  31    -0.0016826215041708
  32    0.0028231530822437
  33    0.00090083762150725