[Molden Format]
made by pyscf v[2.0.1]
[Atoms] (AU)
C   1   6     0.00000000000000     0.00000000000000     0.00000000000000
C   2   6     2.85272299873892     0.00000000000000     0.00000000000000
H   3   1     3.62066923017674     0.00000000000000     1.90331545357504
F   4   9     3.65943188126013    -2.04308229183900    -1.24074875274501
F   5   9     3.65943188126013     2.04308229183900    -1.24074875274501
F   6   9    -0.80670888252121     2.38973554312721     0.05297879367154
H   7   1    -0.76794623143782    -0.95165772678752    -1.64831953421149
F   8   9    -0.80670888252121    -1.14898679038220     2.09606108551054
[GTO]
1 0
 s    8 1.00
                  6665  0.00069158396281299
                  1000  0.0053257961529341
                   228   0.027060721042034
                 64.71    0.10165684614077
                 21.06     0.2745748236174
                 7.495    0.44829431892377
                 2.797    0.28490261071525
                0.5215   0.015194859206082
 s    8 1.00
                  6665  -0.00029326965268655
                  1000  -0.0023180354739745
                   228  -0.011499786038565
                 64.71  -0.046826727009787
                 21.06   -0.12846616875047
                 7.495   -0.30126627246289
                 2.797   -0.25563070233011
                0.5215      1.093793361012
 s    1 1.00
                0.1596                   1
 p    3 1.00
                 9.439   0.056979251590039
                 2.002    0.31320721150073
                0.5456    0.76037674173753
 p    1 1.00
                0.1517                   1
 d    1 1.00
                  0.55                   1

2 0
 s    8 1.00
                  6665  0.00069158396281299
                  1000  0.0053257961529341
                   228   0.027060721042034
                 64.71    0.10165684614077
                 21.06     0.2745748236174
                 7.495    0.44829431892377
                 2.797    0.28490261071525
                0.5215   0.015194859206082
 s    8 1.00
                  6665  -0.00029326965268655
                  1000  -0.0023180354739745
                   228  -0.011499786038565
                 64.71  -0.046826727009787
                 21.06   -0.12846616875047
                 7.495   -0.30126627246289
                 2.797   -0.25563070233011
                0.5215      1.093793361012
 s    1 1.00
                0.1596                   1
 p    3 1.00
                 9.439   0.056979251590039
                 2.002    0.31320721150073
                0.5456    0.76037674173753
 p    1 1.00
                0.1517                   1
 d    1 1.00
                  0.55                   1

3 0
 s    3 1.00
                 13.01   0.033498726389998
                 1.962    0.23480080117413
                0.4446     0.8136829578829
 s    1 1.00
                 0.122                   1
 p    1 1.00
                 0.727                   1

4 0
 s    8 1.00
                 14710  0.00072067370873197
                  2207  0.0055504869689163
                 502.8   0.028254207662589
                 142.6    0.10639582836653
                 46.47    0.28668420124307
                  16.7    0.44843796582416
                 6.356    0.26464118141135
                 1.316   0.015326060993048
 s    8 1.00
                 14710  -0.00032119389049893
                  2207  -0.0025461915683188
                 502.8  -0.012643359507821
                 142.6   -0.05195749170489
                 46.47   -0.14344713812646
                  16.7   -0.33243762329603
                 6.356   -0.21865906750347
                 1.316     1.0955904138622
 s    1 1.00
                0.3897                   1
 p    3 1.00
                 22.67   0.064834021493887
                 4.977    0.34053535983101
                 1.347    0.73464640679382
 p    1 1.00
                0.3471                   1
 d    1 1.00
                  1.64                   1

5 0
 s    8 1.00
                 14710  0.00072067370873197
                  2207  0.0055504869689163
                 502.8   0.028254207662589
                 142.6    0.10639582836653
                 46.47    0.28668420124307
                  16.7    0.44843796582416
                 6.356    0.26464118141135
                 1.316   0.015326060993048
 s    8 1.00
                 14710  -0.00032119389049893
                  2207  -0.0025461915683188
                 502.8  -0.012643359507821
                 142.6   -0.05195749170489
                 46.47   -0.14344713812646
                  16.7   -0.33243762329603
                 6.356   -0.21865906750347
                 1.316     1.0955904138622
 s    1 1.00
                0.3897                   1
 p    3 1.00
                 22.67   0.064834021493887
                 4.977    0.34053535983101
                 1.347    0.73464640679382
 p    1 1.00
                0.3471                   1
 d    1 1.00
                  1.64                   1

6 0
 s    8 1.00
                 14710  0.00072067370873197
                  2207  0.0055504869689163
                 502.8   0.028254207662589
                 142.6    0.10639582836653
                 46.47    0.28668420124307
                  16.7    0.44843796582416
                 6.356    0.26464118141135
                 1.316   0.015326060993048
 s    8 1.00
                 14710  -0.00032119389049893
                  2207  -0.0025461915683188
                 502.8  -0.012643359507821
                 142.6   -0.05195749170489
                 46.47   -0.14344713812646
                  16.7   -0.33243762329603
                 6.356   -0.21865906750347
                 1.316     1.0955904138622
 s    1 1.00
                0.3897                   1
 p    3 1.00
                 22.67   0.064834021493887
                 4.977    0.34053535983101
                 1.347    0.73464640679382
 p    1 1.00
                0.3471                   1
 d    1 1.00
                  1.64                   1

7 0
 s    3 1.00
                 13.01   0.033498726389998
                 1.962    0.23480080117413
                0.4446     0.8136829578829
 s    1 1.00
                 0.122                   1
 p    1 1.00
                 0.727                   1

8 0
 s    8 1.00
                 14710  0.00072067370873197
                  2207  0.0055504869689163
                 502.8   0.028254207662589
                 142.6    0.10639582836653
                 46.47    0.28668420124307
                  16.7    0.44843796582416
                 6.356    0.26464118141135
                 1.316   0.015326060993048
 s    8 1.00
                 14710  -0.00032119389049893
                  2207  -0.0025461915683188
                 502.8  -0.012643359507821
                 142.6   -0.05195749170489
                 46.47   -0.14344713812646
                  16.7   -0.33243762329603
                 6.356   -0.21865906750347
                 1.316     1.0955904138622
 s    1 1.00
                0.3897                   1
 p    3 1.00
                 22.67   0.064834021493887
                 4.977    0.34053535983101
                 1.347    0.73464640679382
 p    1 1.00
                0.3471                   1
 d    1 1.00
                  1.64                   1

[5d]
[7f]
[9g]

[MO]
 Sym= A
 Ene=               0
 Spin= Alpha
 Occup=    1.00000
   1       1.0019115261975
   2    0.0042257866206818
   3    -0.0074236712408605
   4    -0.00057747969245087
   5    0.00052219768449054
   6    0.00099588500902507
   7    -0.0015821313241129
   8    0.00030264238833426
   9    0.00066295865946389
  10    2.8608917392882e-05
  11    -0.00010012943676861
  12    -0.00021256369724813
  13    -0.00026955262813067
  14    -5.3791600036463e-05
  15    -0.00021834699140479
  16    6.0665810357637e-05
  17    0.0032128314031654
  18    -0.00047292743940292
  19    -1.1730050588505e-05
  20    6.6412428942118e-06
  21    -0.0015627824830372
  22    -7.7069946743376e-05
  23    -0.00043022897740072
  24    -4.6715732501668e-05
  25    8.3707548615072e-05
  26    1.6145149232308e-05
  27    7.1672990257624e-05
  28    5.9763225655521e-05
  29    -4.60311044862e-05
  30    0.00042513912954947
  31    -9.7292114680465e-05
  32    -4.6935660674863e-06
  33    -2.5440183322046e-05
  34    7.7024215715358e-06
  35    2.0063931666716e-05
  36    -0.00024060509305446
  37    1.8802403599458e-06
  38    3.7776616685069e-06
  39    -1.2741685909819e-05
  40    -2.8311139932997e-05
  41    -7.265110194401e-05
  42    4.6891920302145e-05
  43    -1.5742373017692e-05
  44    -1.0827852087717e-05
  45    1.5302009025846e-05
  46    1.8909832937574e-05
  47    -7.4937656525161e-06
  48    -1.0831943555235e-05
  49    -8.7890719379383e-06
  50    -0.00013139803757613
  51    -1.1807057323103e-05
  52    -1.3921852469357e-05
  53    -3.8090765811668e-06
  54    -9.4927542552152e-05
  55    8.9697876184259e-05
  56    1.3849422986371e-05
  57    -2.0191132150494e-05
  58    -1.0873770615238e-05
  59    -9.3597892358441e-06
  60    2.6980441188297e-05
  61    1.3668878379587e-05
  62    0.0001453675968728
  63    0.00065592747653455
  64    -8.5279522541221e-05
  65    7.7353497138195e-05
  66    -0.00033753219552083
  67    2.9433438429217e-05
  68    -0.00013819804296416
  69    0.00085516914418724
  70    -3.7096372223053e-05
  71    9.111784489707e-05
  72    -8.8439471779059e-06
  73    1.1641621468661e-05
  74    0.00011246038434617
  75    7.4367158918887e-05
  76    0.00096719590737615
  77    0.0015452614124947
  78    0.00022085553820226
  79    4.4126623213766e-05
  80    5.6027936291447e-05
  81    0.00016203399047306
  82    0.0006889193932833
  83    -0.00018965194681459
  84    7.3403602588414e-05
  85    0.00019185123377056
  86    -0.00027509707145644
  87    -0.00014630265096852
  88    -0.00047144404714419
  89    0.00075387420885186
  90    -8.1541242488971e-05
  91    6.3509519873973e-05
  92    0.00012840129322982
  93    1.6969677743742e-05
  94    -4.8105351270516e-05
 Sym= A
 Ene=               1
 Spin= Alpha
 Occup=    1.00000
   1    -0.00021834361080649
   2    6.0704720158111e-05
   3    0.0032128689914036
   4    0.00047299645011883
   5    -1.3478008635265e-05
   6    1.1057912951083e-07
   7    0.0015628045062795
   8    0.0001483687846985
   9    0.00041112683808907
  10    -3.2609408496268e-05
  11    0.00010237375998672
  12    -1.2073523719223e-05
  13    7.9823719172699e-05
  14    -9.902741179669e-06
  15       1.0019115268458
  16    0.0042257745773069
  17    -0.0074236686321194
  18    0.0005773890487413
  19    -4.5702160762843e-05
  20    -0.0011235918890735
  21    0.0015821107920886
  22    -6.9384562444032e-05
  23    -0.00072547363910865
  24    -8.3190298689776e-05
  25    -0.0001136103929748
  26    1.1018180222319e-05
  27    -0.00033408911887631
  28    -3.4793499147697e-06
  29    0.00096712977558575
  30    0.0015452345016236
  31    -0.0002208553421435
  32    1.0201112167741e-05
  33    -7.0579914183789e-05
  34    0.00016204285926885
  35    0.0006889363808895
  36    -0.00018963215854691
  37    -7.337151809591e-05
  38    0.00030365296905221
  39    0.00014233554576389
  40    0.00014632891064182
  41    -0.00078524905024308
  42    -0.0004171353035563
  43    4.1663852776718e-05
  44    3.0947982359435e-05
  45    -0.00011800948592937
  46     8.81033840052e-05
  47    7.3415390011745e-05
  48    0.00014537175365692
  49    0.00065592837012447
  50    -8.5278581176398e-05
  51    -7.7320884529481e-05
  52    -0.00030700678957326
  53    0.0001432936574497
  54    0.00013822539373648
  55    0.0007591603313707
  56    -0.00039544289781173
  57    4.1331504651117e-05
  58    2.9524347638033e-05
  59    0.00011121507178084
  60    8.3717154864756e-05
  61    -6.8825800745382e-05
  62    -1.0832593996861e-05
  63    -8.7883072624784e-06
  64    -0.0001314004649986
  65    1.1791368293833e-05
  66    -1.0149723877951e-05
  67    1.0264875878959e-05
  68    9.4912379407031e-05
  69    7.0758046063829e-05
  70    -5.6839388245646e-05
  71    -2.5480868732166e-05
  72    -2.5824976804507e-06
  73    1.2193126538073e-06
  74    2.3926792763237e-05
  75    -1.7275101762164e-05
  76    -4.6036942119137e-05
  77    0.00042512457825034
  78    9.7293431857898e-05
  79    8.655668765295e-06
  80    2.4378533695886e-05
  81    7.7015907063409e-06
  82    2.0062994795067e-05
  83    -0.00024061082006276
  84    -1.8916835966363e-06
  85    9.6328139859894e-06
  86    9.1503203121786e-06
  87    2.8299125693995e-05
  88    -8.637093767768e-05
  89    -4.2800701775866e-06
  90    -2.4568442330028e-06
  91    -1.3124661975769e-05
  92    -1.1269328376206e-05
  93    2.6580693569178e-05
  94    1.0760484042159e-06
 Sym= A
 Ene=               2
 Spin= Alpha
 Occup=    1.00000
   1    -0.00019419079039587
   2    0.00027242712254608
   3     0.003771829018912
   4    -0.0003907895500746
   5    0.00095626220661164
   6    3.2111413484339e-05
   7    0.00026227737067237
   8    0.0016160988748102
   9    0.00037554660343121
  10    -7.8411613082201e-05
  11    -2.6538068657289e-05
  12    -9.875109066886e-06
  13    -8.0769770435211e-05
  14    -9.088862287015e-05
  15    6.0766302562361e-05
  16    7.0726257867768e-05
  17    -0.0015480031228493
  18    0.00012025208842252
  19    7.9018434298518e-06
  20    4.4374811532539e-07
  21    0.00081254587717967
  22    -0.00039153900996061
  23    -1.5960608655478e-05
  24    -1.7889764960499e-05
  25    -1.0546623703298e-06
  26    -1.6320719318678e-05
  27    -8.2364353592808e-05
  28    2.0786781073536e-05
  29    0.0001303921875029
  30    -0.00012720938076498
  31    1.0909904440788e-05
  32    2.479947618125e-05
  33    -7.7031576533397e-06
  34    -2.2661314625926e-05
  35    -3.8719068048224e-05
  36    0.00011358895500883
  37    2.1620528519953e-05
  38    9.899494383164e-06
  39    5.1286546394603e-06
  40    -0.00018973599127649
  41    4.2039832574613e-05
  42    -6.3907772443703e-06
  43    -8.4701162939012e-06
  44    3.9915966545902e-07
  45    -4.1421469146204e-06
  46    -4.5036103179229e-06
  47    -2.6414576193182e-06
  48    -2.4308076059177e-05
  49    -5.0495495160113e-05
  50    0.00018741634815545
  51    1.5724968010333e-05
  52    7.6352633681354e-06
  53    -3.1548038912357e-05
  54    -9.3154014643393e-06
  55    -2.3042350954823e-05
  56    7.6366155847235e-05
  57    1.0244319074152e-05
  58    5.3819843963174e-06
  59    7.4090052205491e-06
  60    -1.4180837775154e-05
  61    -2.632728180396e-08
  62       1.0010291144963
  63    0.00084048299857312
  64    -0.005753316956909
  65     0.000699650371179
  66    -0.0022418777618457
  67    -5.7370474815434e-05
  68    -0.00028315334993533
  69    0.0006272776093211
  70    -7.422631549686e-05
  71    5.5717212650005e-05
  72    4.5931417738443e-06
  73    -7.3462592420387e-07
  74    9.8003450654363e-05
  75    7.5103525708366e-05
  76    -0.00022839426863964
  77    -6.2986012036029e-05
  78    1.0975856634117e-05
  79    -0.00016407327294352
  80    -1.6409029049438e-05
  81    9.7559882090822e-05
  82    0.00016261124192616
  83    -0.00070746163506499
  84    -3.4695472332317e-06
  85    -8.3036077174754e-06
  86    5.5070472576154e-05
  87    -3.775989906505e-05
  88    -0.00044140668387932
  89    8.8890861900415e-05
  90    5.560065300875e-06
  91    -4.8032732657148e-06
  92    2.3243729802451e-05
  93    1.0621654575724e-05
  94    -1.6252289385946e-05
 Sym= A
 Ene=               3
 Spin= Alpha
 Occup=    1.00000
   1    6.0926381119636e-05
   2    7.0904190265874e-05
   3    -0.0015498241499064
   4    -0.00012049601656249
   5    7.6546089502745e-06
   6    -5.1108688390785e-06
   7    -0.00081336323102553
   8    -0.00033102207995046
   9    0.00020811076551314
  10    -5.6043155501557e-06
  11    8.9743922672132e-06
  12    -4.0934036108523e-05
  13    -7.4992809692458e-05
  14    -1.7738117706539e-05
  15    -0.00019228235725776
  16    0.0002868125432788
  17    0.0037748278094639
  18    0.00039722469449892
  19    0.00082782890733766
  20    -0.00051603806163507
  21    -0.0002622595790518
  22    0.0012125919540313
  23    -0.0011319662507836
  24    -3.8758689122015e-05
  25    -6.8736387175081e-05
  26    -9.0141115109991e-05
  27    -5.8198371253884e-05
  28    6.6027143526146e-05
  29    -0.00022807574951388
  30    -6.6169975027778e-05
  31    -1.0602666424304e-05
  32    -0.00013332400302639
  33    9.5898846002508e-05
  34    9.7457195967211e-05
  35    0.00016201039290873
  36    -0.00070750234286042
  37    3.6830759848639e-06
  38    -3.5990434285641e-05
  39    -4.3928182701706e-05
  40    3.7773200134015e-05
  41    -0.0004278062792094
  42    0.00014355949391769
  43    1.8431337847048e-05
  44    -1.2197647327837e-05
  45    -2.8266518740146e-06
  46    1.791952226006e-05
  47    1.1655432945309e-05
  48       1.0010290726939
  49    0.00076282365040346
  50    -0.0058449878941019
  51    -0.00071780282920106
  52    -0.0019632756672447
  53    0.0011960470237989
  54    0.00027108321225584
  55    0.00054660840179098
  56    -0.00023255489422691
  57    1.2754691698054e-05
  58    4.1099112852852e-05
  59    8.3479736186583e-05
  60    7.2525370376033e-05
  61    -6.1992518139082e-05
  62    -2.4298160143237e-05
  63    -5.0365542384944e-05
  64    0.00018771317759397
  65    -1.5154100024964e-05
  66    2.290993927541e-05
  67    2.3284833806115e-05
  68    9.4525548036045e-06
  69    -5.8251921556484e-05
  70    -5.4305739250858e-05
  71    1.5016259341833e-05
  72    4.6605745523455e-06
  73    -2.1420093668884e-06
  74    -1.1453769277808e-05
  75    2.6784104209822e-06
  76    0.00013042511490147
  77    -0.00012745733404808
  78    -1.0947492533185e-05
  79    2.5362498319167e-05
  80    -5.7656560589861e-06
  81    -2.265094571503e-05
  82    -3.8504602728265e-05
  83    0.00011451419685912
  84    -2.1088007925682e-05
  85    6.1628884723726e-06
  86    -9.6678703427824e-06
  87    0.00019010517896358
  88    3.9839326471556e-05
  89    -1.5630282628354e-05
  90    -7.4308804070864e-06
  91    -9.4325672989405e-07
  92    -6.2188317123538e-06
  93    -3.9305460621351e-06
  94    2.4776622383692e-06
 Sym= A
 Ene=               4
 Spin= Alpha
 Occup=    1.00000
   1    -0.00017615387094009
   2    0.00029498228904652
   3    0.0034883123916293
   4    -0.00039203575107054
   5    -0.00044042906843081
   6    0.00083253922173132
   7    0.00017631510431618
   8    -0.00047553132409508
   9    0.0015132026947247
  10    6.8428293193232e-05
  11    -7.5102831469302e-05
  12    -9.1161434036696e-05
  13    -4.6958046341401e-06
  14    4.4855827770766e-05
  15    6.5865109115062e-05
  16    8.9118123688302e-05
  17    -0.0014081926174932
  18    0.00014490130352427
  19    -1.2366520031737e-05
  20     3.41247600911e-05
  21    0.00062520991735735
  22    -9.4366203811499e-06
  23    -0.00037985975997824
  24    7.7266893751287e-05
  25    4.3443744893976e-05
  26    -4.3077453967587e-05
  27    -3.7160727127395e-05
  28    7.5997494503436e-06
  29    7.2802728948383e-05
  30    4.8351033373456e-05
  31    5.4342078872384e-05
  32    1.8498156737123e-05
  33    1.0463230710939e-05
  34    2.2613876388819e-05
  35    4.9650184155802e-05
  36    -2.3597820831694e-05
  37    -2.3936699103177e-05
  38    8.5320524127939e-06
  39    6.8087543717635e-06
  40    1.8353466961777e-05
  41    2.4619756514356e-05
  42    8.3521262827172e-06
  43    7.7190812925279e-06
  44    7.4026853095624e-06
  45    7.3682952689945e-06
  46    -1.172909302229e-05
  47    -2.4481762868426e-06
  48    -2.4449571649431e-05
  49    -4.3288407861369e-05
  50    0.00014636115871141
  51    1.0947237562263e-05
  52    -8.9263307619555e-06
  53    -2.0027222183307e-06
  54    -0.00012738395056425
  55    -1.4515259208238e-05
  56    6.2500811439214e-05
  57    1.145514750099e-05
  58    1.7071983264006e-06
  59    -5.7127013546212e-06
  60    3.4214267747407e-06
  61    -1.6394860517281e-06
  62    9.2271464035576e-05
  63    0.00015343827977461
  64    -0.0006584767610659
  65    -3.0807038600055e-07
  66    5.0812837231145e-05
  67    1.5416277379705e-05
  68    -3.8436598515782e-05
  69    0.00027252766781085
  70    -0.00031587308941498
  71    9.1132844336699e-06
  72    -1.5976690179109e-05
  73    1.9181624055896e-05
  74    9.6050687183191e-06
  75    3.9528251526325e-06
  76    -0.0002411430225807
  77    -6.6340494149409e-05
  78    6.2517680287598e-06
  79    6.4251535382829e-05
  80    -0.00015288357052105
  81        1.001020642691
  82    0.00087514569768114
  83    -0.0056259964916482
  84    0.00073132693964416
  85    0.0010571233055066
  86    -0.0019144013124912
  87    -0.00027412654027616
  88    -0.00034229964947944
  89    0.00052143604264498
  90    -7.2720405577085e-05
  91    6.6178861632031e-05
  92    8.2426936560469e-05
  93    2.2974588580719e-05
  94    -2.9178398693245e-05
 Sym= A
 Ene=               5
 Spin= Alpha
 Occup=    1.00000
   1    6.5891723991794e-05
   2    8.9286739192129e-05
   3    -0.0014084468910761
   4    -0.00014507521696963
   5    -2.8647698923677e-05
   6    -2.4129223010761e-05
   7    -0.00062726909637688
   8    0.00018102118861541
   9    0.00033135268407556
  10    2.3918283467637e-05
  11    4.1055436310949e-05
  12    6.3407496430854e-05
  13    -6.7809335366316e-05
  14    1.4650998876303e-05
  15    -0.00017485392635823
  16    0.00030530034758399
  17    0.0034916378037337
  18    0.00039662145803038
  19    -0.00080936288723062
  20    -0.00050799226782701
  21    -0.00017698289287429
  22    -0.0011689512892712
  23    -0.0010715019681742
  24    -2.4693415757659e-05
  25    -4.2863639157254e-05
  26    9.569197949441e-05
  27    -5.8661621635999e-05
  28    -7.6851025067248e-05
  29    -0.00024114929905598
  30    -6.8747368742588e-05
  31    -5.9989266732512e-06
  32    0.0001316639677174
  33    9.9992231496963e-05
  34       1.0010206481625
  35    0.00081796529475168
  36    -0.0056935152276986
  37    -0.00074424644882107
  38    0.0019083148741804
  39    0.0011509996294433
  40    0.0002657128819097
  41    -0.00053328792340373
  42    -0.00026604338814618
  43    1.1248279688465e-05
  44    4.2379582136931e-05
  45    -8.4960872398157e-05
  46    7.0958336910634e-05
  47    5.7809443472955e-05
  48    9.2201756355241e-05
  49    0.00015309594187604
  50    -0.00065841812677481
  51    4.5430806338545e-07
  52    3.7053443532589e-05
  53    -3.900378407097e-05
  54    3.8469998834957e-05
  55    0.00039463874813629
  56    0.00013716499750218
  57    1.7870537890884e-05
  58    -1.1794736906164e-05
  59    1.386205662599e-06
  60    1.4573336169596e-05
  61    -1.1401837115476e-05
  62    -2.4411395563388e-05
  63    -4.312533207095e-05
  64    0.00014657457850542
  65    -1.0639145460688e-05
  66    -6.8709984282143e-06
  67    6.2863262169774e-06
  68    0.00012779189837479
  69    -4.3789887644899e-05
  70    -4.6487894508578e-05
  71    2.1559062122692e-06
  72    6.5360971934072e-07
  73    1.2928147729797e-05
  74    -1.9624805456766e-06
  75    2.2973233929772e-06
  76    7.3004520802825e-05
  77    4.5547768945085e-05
  78    -5.4397370377289e-05
  79    1.0767599748576e-05
  80    -1.8303870754137e-05
  81    2.254137112214e-05
  82    4.9570706873425e-05
  83    -2.2777497315625e-05
  84    2.4070960986023e-05
  85    4.0797640772447e-06
  86    -1.0066326265918e-05
  87    -1.7919086619483e-05
  88    1.7408777803885e-05
  89    -1.9424735159184e-05
  90    1.2899382086533e-05
  91    5.1855826014659e-06
  92    -2.9655801037232e-06
  93    -8.7469945683637e-06
  94    5.8047729134259e-06
 Sym= A
 Ene=               6
 Spin= Alpha
 Occup=    1.00000
   1    0.0010638232379867
   2     0.014392324429495
   3     0.011396715596575
   4    -0.016493492481018
   5     -0.01853802962507
   6     0.032117199721818
   7    -0.020466285401736
   8    -0.016605503288593
   9     0.044285515857972
  10    -0.0023194930433375
  11    -0.0070513334892836
  12      0.03549166989174
  13     0.013495637752174
  14    -0.017328776339764
  15     0.001629797826879
  16     0.013849370841083
  17     0.016362873883255
  18    -0.023904993324684
  19    0.0013814204349294
  20    -0.0051201636089541
  21    -0.019315986371431
  22    -0.00056638115424156
  23    -0.013526428564549
  24    0.00044788285664169
  25    -0.00013703559266428
  26    -0.00087510614159137
  27    -1.8338192120563e-05
  28    -0.0006840374766953
  29    -0.0057251023963643
  30    0.0017998667064802
  31    0.00010337520269862
  32    0.00068714093365195
  33    0.00022427550639681
  34    -0.00031893107814794
  35    -0.0025542827905923
  36    -0.0035467684802563
  37    0.0063908695220546
  38    -0.0020104365136294
  39    -0.0013514892122097
  40    0.0052549833202808
  41    -0.0017960746286303
  42    -0.0005587127244967
  43    -0.00025047324749049
  44    -0.00019282387812829
  45    -0.0001501391426305
  46    0.00040093838911395
  47    -0.00039687106412715
  48    0.0015063059751659
  49    0.0070609198017891
  50    0.00065927870489414
  51    -0.012187271295626
  52    0.00014234053146107
  53    0.0023579877106703
  54    -0.0032959670130659
  55    -0.0013045409582126
  56    0.0043547100103291
  57    0.0005374672502585
  58    -6.2267574654405e-05
  59    -0.00025112763333122
  60    -0.0010665188709817
  61    0.00085484656435724
  62    0.00031449629244645
  63     0.002278580310197
  64    -0.00099890750355865
  65      -0.3214563984488
  66     -0.11957451714068
  67      0.56892590699337
  68     -0.22253620587023
  69    -0.079945483356065
  70      0.39194863361054
  71    -0.0004467145870402
  72    0.0047912540373488
  73    -0.012007354069098
  74    -0.0049335825441996
  75    0.0061196683090427
  76     0.023194883184316
  77     0.016576383485553
  78    -0.00067487472299614
  79    0.00077142746326241
  80    -0.00068115804108434
  81     0.001510767816086
  82     -0.01428734776374
  83    -0.049677169668582
  84    -0.0061217517861847
  85    -0.032853344517744
  86     0.031838160766648
  87    -0.0051176368276026
  88    -0.031588050512883
  89     0.028687489715289
  90    -0.00011910069507818
  91    -0.00028775089919432
  92    0.00045351642407545
  93    -0.0003600745677613
  94    -0.00070838728927926
 Sym= A
 Ene=               7
 Spin= Alpha
 Occup=    1.00000
   1     0.001134757077207
   2     0.033195384343674
   3     0.088475126553484
   4     0.042267249102708
   5    -0.004130789453799
   6    -0.010731709901831
   7      0.01777559243844
   8     0.014032951891114
   9    -0.0095789248066175
  10    0.00033179582619076
  11    -0.0012440957394814
  12    -0.0010669289052688
  13    0.0015864654219802
  14    -0.00067491441804417
  15    0.0028786577559615
  16     0.003580660058385
  17    -0.011498856834424
  18    0.00067624722567996
  19    -0.0018237821181975
  20    -0.00058018594214909
  21     0.030536659550864
  22    -0.018356583563012
  23     0.010290076763256
  24    -0.023413186590634
  25    -0.010323571320863
  26    -0.017198333518515
  27     0.011726363453088
  28    -0.026102556029296
  29    -0.050826746439163
  30     -0.04663160208041
  31    -0.0018861953640465
  32    0.0029596954047252
  33    0.00070092461709666
  34    0.0014923648083826
  35    -0.0063249433636815
  36    -0.019293020947346
  37      0.54560530636322
  38    -0.018688996186714
  39      0.38685548301999
  40      0.37949920472807
  41    -0.014638706830023
  42      0.26664030115387
  43    0.0069971574647019
  44    0.0026152793790461
  45    0.0062412937680815
  46    -0.0037321737151699
  47    0.0094190116305725
  48    -0.00073715599309686
  49    -0.00022722947061214
  50    0.0092899830459877
  51    -0.0035929348682264
  52    -0.0015796131618561
  53    -0.0014485638842224
  54    -0.005213063659799
  55    -0.0016159365714689
  56    0.00051700234885327
  57    -0.00058022451883741
  58    -0.00022697767426501
  59    -0.00031647437104638
  60    0.00030035319361729
  61    -0.00030849713453249
  62    0.00092963745787751
  63    -0.0027515924570334
  64    -0.020419856798882
  65    -0.0083413865113287
  66    0.0096325825761619
  67    0.0021256821821503
  68    -0.0060878774803192
  69     0.012574421253174
  70    0.0016829041929781
  71    -7.8130722023709e-05
  72    -0.00011443855975687
  73    0.00017529179930444
  74    0.00068205364957026
  75    -0.0006404800559289
  76     0.010500432562584
  77    -0.030895025908757
  78    -0.0034681784427165
  79      0.00102852137146
  80    0.0014688239428006
  81    8.6721244847956e-05
  82    -0.0015523258171821
  83    -0.0053372799129603
  84    -0.0031276210330402
  85    -0.0021189262344469
  86    0.0044848855782205
  87    -0.0041550249466897
  88    -0.0055557232910936
  89    0.0050686916300121
  90    -2.1968420821921e-05
  91    -0.00048512433472296
  92    0.00024840217357567
  93    0.0003143488531728
  94    0.00022057560966017
 Sym= A
 Ene=               8
 Spin= Alpha
 Occup=    1.00000
   1    -0.0028760966208782
   2    -0.0035594400439798
   3     0.011507653348358
   4    0.00066603364528705
   5    0.0012800350244555
   6    -0.0013908343680239
   7     0.030537198541812
   8     0.021044564398502
   9    -0.00026780652730546
  10     0.030073867759534
  11     0.021989443007422
  12    0.0038839808628542
  13    -0.0078800148986719
  14    -0.017443107503035
  15    -0.0011343950967253
  16    -0.033193517699452
  17    -0.088475797356399
  18     0.042266028727601
  19    -0.0017891061745642
  20    -0.011357229119164
  21     0.017779354611334
  22     -0.01694074001486
  23    -0.0012754090046179
  24    0.00093613191595484
  25    0.0014137808098889
  26    -0.0014692407726582
  27    -0.00085402190489736
  28    3.8001917306224e-05
  29     -0.01049945400386
  30     0.030889998347833
  31    -0.0034681191339232
  32    -0.00015630933479688