[Molden Format]
made by pyscf v[2.0.1]
[Atoms] (AU)
C   1   6     0.00000000000000     0.00000000000000     0.00000000000000
C   2   6     2.85272299873892     0.00000000000000     0.00000000000000
H   3   1     3.62066923017674     0.00000000000000     1.90331545357504
F   4   9     3.65943188126013    -2.04308229183900    -1.24074875274501
F   5   9     3.65943188126013     2.04308229183900    -1.24074875274501
F   6   9    -0.80670888252121     0.46714714892290     2.34423041954446
H   7   1    -0.76794623143782    -1.78853148675225    -0.65097222422570
F   8   9    -0.80670888252121     1.86469774548472    -1.49550828705447
[GTO]
1 0
 s    8 1.00
                  6665  0.00069158396281299
                  1000  0.0053257961529341
                   228   0.027060721042034
                 64.71    0.10165684614077
                 21.06     0.2745748236174
                 7.495    0.44829431892377
                 2.797    0.28490261071525
                0.5215   0.015194859206082
 s    8 1.00
                  6665  -0.00029326965268655
                  1000  -0.0023180354739745
                   228  -0.011499786038565
                 64.71  -0.046826727009787
                 21.06   -0.12846616875047
                 7.495   -0.30126627246289
                 2.797   -0.25563070233011
                0.5215      1.093793361012
 s    1 1.00
                0.1596                   1
 p    3 1.00
                 9.439   0.056979251590039
                 2.002    0.31320721150073
                0.5456    0.76037674173753
 p    1 1.00
                0.1517                   1
 d    1 1.00
                  0.55                   1

2 0
 s    8 1.00
                  6665  0.00069158396281299
                  1000  0.0053257961529341
                   228   0.027060721042034
                 64.71    0.10165684614077
                 21.06     0.2745748236174
                 7.495    0.44829431892377
                 2.797    0.28490261071525
                0.5215   0.015194859206082
 s    8 1.00
                  6665  -0.00029326965268655
                  1000  -0.0023180354739745
                   228  -0.011499786038565
                 64.71  -0.046826727009787
                 21.06   -0.12846616875047
                 7.495   -0.30126627246289
                 2.797   -0.25563070233011
                0.5215      1.093793361012
 s    1 1.00
                0.1596                   1
 p    3 1.00
                 9.439   0.056979251590039
                 2.002    0.31320721150073
                0.5456    0.76037674173753
 p    1 1.00
                0.1517                   1
 d    1 1.00
                  0.55                   1

3 0
 s    3 1.00
                 13.01   0.033498726389998
                 1.962    0.23480080117413
                0.4446     0.8136829578829
 s    1 1.00
                 0.122                   1
 p    1 1.00
                 0.727                   1

4 0
 s    8 1.00
                 14710  0.00072067370873197
                  2207  0.0055504869689163
                 502.8   0.028254207662589
                 142.6    0.10639582836653
                 46.47    0.28668420124307
                  16.7    0.44843796582416
                 6.356    0.26464118141135
                 1.316   0.015326060993048
 s    8 1.00
                 14710  -0.00032119389049893
                  2207  -0.0025461915683188
                 502.8  -0.012643359507821
                 142.6   -0.05195749170489
                 46.47   -0.14344713812646
                  16.7   -0.33243762329603
                 6.356   -0.21865906750347
                 1.316     1.0955904138622
 s    1 1.00
                0.3897                   1
 p    3 1.00
                 22.67   0.064834021493887
                 4.977    0.34053535983101
                 1.347    0.73464640679382
 p    1 1.00
                0.3471                   1
 d    1 1.00
                  1.64                   1

5 0
 s    8 1.00
                 14710  0.00072067370873197
                  2207  0.0055504869689163
                 502.8   0.028254207662589
                 142.6    0.10639582836653
                 46.47    0.28668420124307
                  16.7    0.44843796582416
                 6.356    0.26464118141135
                 1.316   0.015326060993048
 s    8 1.00
                 14710  -0.00032119389049893
                  2207  -0.0025461915683188
                 502.8  -0.012643359507821
                 142.6   -0.05195749170489
                 46.47   -0.14344713812646
                  16.7   -0.33243762329603
                 6.356   -0.21865906750347
                 1.316     1.0955904138622
 s    1 1.00
                0.3897                   1
 p    3 1.00
                 22.67   0.064834021493887
                 4.977    0.34053535983101
                 1.347    0.73464640679382
 p    1 1.00
                0.3471                   1
 d    1 1.00
                  1.64                   1

6 0
 s    8 1.00
                 14710  0.00072067370873197
                  2207  0.0055504869689163
                 502.8   0.028254207662589
                 142.6    0.10639582836653
                 46.47    0.28668420124307
                  16.7    0.44843796582416
                 6.356    0.26464118141135
                 1.316   0.015326060993048
 s    8 1.00
                 14710  -0.00032119389049893
                  2207  -0.0025461915683188
                 502.8  -0.012643359507821
                 142.6   -0.05195749170489
                 46.47   -0.14344713812646
                  16.7   -0.33243762329603
                 6.356   -0.21865906750347
                 1.316     1.0955904138622
 s    1 1.00
                0.3897                   1
 p    3 1.00
                 22.67   0.064834021493887
                 4.977    0.34053535983101
                 1.347    0.73464640679382
 p    1 1.00
                0.3471                   1
 d    1 1.00
                  1.64                   1

7 0
 s    3 1.00
                 13.01   0.033498726389998
                 1.962    0.23480080117413
                0.4446     0.8136829578829
 s    1 1.00
                 0.122                   1
 p    1 1.00
                 0.727                   1

8 0
 s    8 1.00
                 14710  0.00072067370873197
                  2207  0.0055504869689163
                 502.8   0.028254207662589
                 142.6    0.10639582836653
                 46.47    0.28668420124307
                  16.7    0.44843796582416
                 6.356    0.26464118141135
                 1.316   0.015326060993048
 s    8 1.00
                 14710  -0.00032119389049893
                  2207  -0.0025461915683188
                 502.8  -0.012643359507821
                 142.6   -0.05195749170489
                 46.47   -0.14344713812646
                  16.7   -0.33243762329603
                 6.356   -0.21865906750347
                 1.316     1.0955904138622
 s    1 1.00
                0.3897                   1
 p    3 1.00
                 22.67   0.064834021493887
                 4.977    0.34053535983101
                 1.347    0.73464640679382
 p    1 1.00
                0.3471                   1
 d    1 1.00
                  1.64                   1

[5d]
[7f]
[9g]

[MO]
 Sym= A
 Ene=               0
 Spin= Alpha
 Occup=    1.00000
   1       1.0019146236374
   2    0.0042348799834387
   3    -0.0074848146981091
   4    -0.00056924333173811
   5    0.0010220607584094
   6    0.0004270173755864
   7    -0.0015864418806042
   8    0.00057801080677987
   9    0.00033462917277159
  10    0.0002840234716545
  11    -3.3457210513254e-05
  12    -0.00014637837150982
  13    -0.00012189470082456
  14    -0.00010964375439124
  15    -0.00023218665075527
  16    3.2040955829489e-05
  17    0.0032861484808414
  18    -0.00047376428639468
  19    -1.9553997445051e-05
  20    8.9114113939137e-07
  21    -0.0016115878264466
  22    -0.00012246090369591
  23    -0.00039493817683859
  24    -7.0219565538685e-05
  25    2.1693160945269e-05
  26    4.9315300452646e-06
  27    5.1506151262872e-05
  28    0.00010944543616028
  29    -2.5050759325137e-05
  30    0.00041098059572897
  31    -9.751536708246e-05
  32    -2.211791296633e-06
  33    -4.8756702240616e-05
  34    1.3403298587593e-05
  35    2.9732117675356e-05
  36    -0.00027412649843543
  37    2.5206663991759e-06
  38    -1.058354039723e-06
  39    -1.0088288756786e-05
  40    2.3509702314743e-06
  41    -3.472575197426e-05
  42    2.6036534453467e-06
  43    -1.5066811204482e-05
  44    -5.5519994563903e-06
  45    1.5675199046557e-05
  46    1.6864999008842e-05
  47    -9.1416667680918e-06
  48    -5.4275499969875e-06
  49    3.7515907563817e-06
  50    -0.00015926317110696
  51    -2.4771799283219e-05
  52    -1.4864790869757e-05
  53    -2.132403222015e-06
  54    -7.3482604980891e-05
  55    9.9011776545324e-05
  56    -1.5414635747347e-08
  57    -1.9567169120775e-05
  58    -9.3474203695403e-06
  59    -2.4653563217078e-06
  60    3.0805173460762e-05
  61    1.4934369217097e-05
  62    0.00015904668627795
  63    0.00068354407042091
  64    -0.00017089222084316
  65    7.3792448652219e-05
  66    -3.468723469825e-05
  67    -0.00033258208666523
  68    -0.00014644764184963
  69    0.00014791146054541
  70    0.00086393518033263
  71    -0.00014422667330326
  72    7.9282621649838e-05
  73    -3.9907896022716e-05
  74    -2.0625715222271e-05
  75    4.8669444148225e-06
  76    0.00095093086897729
  77     0.001540642207735
  78    0.00021902075961057
  79    6.9320518953754e-05
  80    1.3440669230273e-05
  81    0.00014251123371872
  82    0.00065011362791894
  83    -5.5050121455355e-05
  84    8.2759476313114e-05
  85    -0.00023990610528806
  86    0.00023813588985095
  87     -0.00015908343502
  88    0.00062703696946754
  89    -0.00056737020700987
  90    -1.4446886983361e-05
  91    -5.4800716574551e-05
  92    0.0001351670532264
  93    4.8982435670016e-05
  94    5.1588824865362e-05
 Sym= A
 Ene=               1
 Spin= Alpha
 Occup=    1.00000
   1    -0.00023218845395406
   2    3.2074123065442e-05
   3    0.0032861817989576
   4    0.00047380547513779
   5    -7.5181955323028e-06
   6    1.8082727979234e-05
   7    0.0016116103115097
   8    0.00032923757712512
   9    0.00025016042982268
  10    -1.3854339019765e-05
  11    0.00011026491059788
  12    -1.8757543084989e-05
  13    8.4050321002623e-05
  14    -1.7047493645897e-05
  15       1.0019146232575
  16    0.0042348638668376
  17    -0.0074848105807426
  18    0.00056919848662622
  19    -5.1698645986312e-05
  20    -0.0011064348849221
  21     0.001586444959803
  22    -0.00011675871675753
  23    -0.00065759408244611
  24    -8.0456323478961e-05
  25    -0.00011447373957454
  26    6.7987117851618e-06
  27    -0.00033231330855162
  28    6.0624567820925e-06
  29    0.0009509137024349
  30    0.0015406226795431
  31    -0.00021902274385864
  32    1.1078955347715e-05
  33    -6.9735837933197e-05
  34    0.00015927388392246
  35    0.00068355253258017
  36    -0.00017088071085367
  37    -7.3713259828199e-05
  38    0.00030058142190822
  39    0.00014642239168108
  40    0.00014650282418775
  41    -0.00076129815665244
  42    -0.00043442024738574
  43    4.0366003775288e-05
  44    3.1689779848389e-05
  45    -0.00011748705369072
  46    8.5949352062245e-05
  47    7.2838921389698e-05
  48    0.00014264878523639
  49    0.00065011800816844
  50    -5.5042316483775e-05
  51    -8.2649652370219e-05
  52    -0.00030577055716331
  53    0.00014406651048614
  54    0.00015915998559085
  55    0.00074764989738319
  56    -0.00039511694828229
  57    4.2476338394531e-05
  58    2.9735213169762e-05
  59    0.0001112443180241
  60    8.184708593139e-05
  61    -6.9142804570261e-05
  62    1.3390621448833e-05
  63    2.9721520204105e-05
  64    -0.00027414696251557
  65    -2.5147826250198e-06
  66    9.1111626347247e-06
  67    4.4298419501056e-06
  68    -2.3513143784646e-06
  69    -1.432778614497e-05
  70    3.173265376523e-05
  71    7.1904133708117e-07
  72    -1.049033533113e-05
  73    9.0411699512767e-06
  74    2.5979011613943e-05
  75    -2.0907757795282e-06
  76    -2.5056409694266e-05
  77    0.00041097345509871
  78    9.7516051768098e-05
  79    4.506008891958e-05
  80    1.8754296932473e-05
  81    -5.4466732659598e-06
  82    3.7629458568148e-06
  83    -0.00015925005197124
  84    2.4773006818844e-05
  85    -3.0695502058176e-06
  86    1.4703919019033e-05
  87    7.3480300236226e-05
  88    3.3885130093148e-05
  89    -9.3031526194958e-05
  90    -1.8579120890854e-05
  91    1.0837367421234e-05
  92    -2.8806701288236e-06
  93    3.1375513267022e-05
  94    -1.3892042428378e-05
 Sym= A
 Ene=               2
 Spin= Alpha
 Occup=    1.00000
   1    8.7424976854032e-05
   2    0.00012744384582843
   3    -0.0016216940466377
   4    -0.00013684045442096
   5    -3.2760929208428e-05
   6    -2.207296536482e-05
   7    -0.00065473031778549
   8    0.00026487621126494
   9    0.00028007780090718
  10    -1.7828079029663e-05
  11    2.831323382662e-05
  12    6.558174131966e-05
  13    -7.5474708117723e-05
  14    3.7606813595248e-05
  15    -0.0001923151345527
  16    0.00024221557853862
  17    0.0036196914872452
  18    0.00037489152971984
  19    -0.00076367919699815
  20    -0.00047554401066563
  21    -0.00020207929228051
  22    -0.001149295683343
  23    -0.0011051718223901
  24    -3.2548401502036e-05
  25    -5.5434455832221e-05
  26    8.5247553364303e-05
  27    -6.3407484772374e-05
  28    -6.2481813212738e-05
  29    -0.00023135245530517
  30    -7.8529378020956e-05
  31    -7.9694141097461e-06
  32    0.0001290708675216
  33    0.00010175634668674
  34       1.0010233410685
  35    0.0010684819115116
  36    -0.0054250161188398
  37    -0.00065463804238043
  38    0.0017597730995139
  39    0.0010717863364676
  40    0.00032054969534605
  41    -0.00063621360496117
  42    -0.00030726926095169
  43    1.3049337623318e-05
  44    4.2230304326558e-05
  45    -8.6044687862772e-05
  46    7.5337506895493e-05
  47    6.0879056094355e-05
  48    0.00010052678077221
  49    0.0001687195772289
  50    -0.00071896747212939
  51    2.5138543546036e-06
  52    3.3990804644602e-05
  53    -4.1688951831481e-05
  54    3.9838747188464e-05
  55    0.00041642398615486
  56    0.00013724595970643
  57    1.8308408943969e-05
  58    -1.2290763031317e-05
  59    3.3006479833609e-06
  60    1.7552957031595e-05
  61    -1.1933838818188e-05
  62    -1.832417101253e-05
  63    -2.949082961173e-05
  64    0.00012921670939091
  65    -7.6656776238624e-06
  66    -7.220000302163e-06
  67    -1.1983074554134e-05
  68    0.00013325124654627
  69    -1.9281398898356e-05
  70    -4.7094830522224e-05
  71    2.7012635895966e-06
  72    -1.9498447450085e-06
  73    1.3152473943696e-05
  74    -2.8778772006399e-06
  75    -1.1104031380459e-07
  76    7.2147839143614e-05
  77    0.00010862780285187
  78    -3.3842214405003e-05
  79    -2.5253332152486e-06
  80    -1.3753019812949e-05
  81    -6.6923763107546e-06
  82    -7.707232712439e-06
  83    0.00013990285406969
  84    1.7968826949912e-05
  85    -8.6914702544646e-06
  86    4.7907038903895e-06
  87    1.2695355227847e-05
  88    -5.6907336362552e-05
  89    2.2064858136598e-05
  90    -4.1019750626141e-06
  91    4.5169670533629e-06
  92    -1.2194866009691e-06
  93    -1.6794322668864e-05
  94    1.6532443052347e-06
 Sym= A
 Ene=               3
 Spin= Alpha
 Occup=    1.00000
   1    -0.00018183016964526
   2    0.00032220530382586
   3    0.0036428211858077
   4    -0.00041073302827164
   5    0.00020714467777703
   6    0.00098574810384455
   7    0.00020852535986379
   8    0.00063633123777704
   9    0.0014570138885501
  10    0.00011334114941571
  11    -7.914983814974e-05
  12    3.1007814107742e-05
  13    1.6817112696334e-05
  14    -3.0473168194918e-05
  15    8.7002856148768e-05
  16    0.00012466626715319
  17    -0.0016251064513071
  18    0.00014257925352202
  19    1.1268816378323e-05
  20    4.7026602488912e-05
  21    0.00067207267159188
  22    -0.00016766235440833
  23    -0.00032688882751943
  24    9.9634968754038e-05
  25    4.0624194208994e-05
  26    1.6089538407701e-05
  27    -6.9690157888498e-06
  28    1.2229059210714e-05
  29    7.288235705126e-05
  30    8.6966692534073e-05
  31    3.4398980839406e-05
  32    1.1827564832512e-05
  33    7.3550369016911e-06
  34    -1.8339334172331e-05
  35    -2.8350378458502e-05
  36    0.00013475736494005
  37    4.5490057049105e-06
  38    1.0276492965681e-05
  39    1.0857824084947e-05
  40    -0.00013692934366788
  41    3.9035656139689e-05
  42    3.2749244775176e-05
  43    8.7899959823871e-06
  44    -6.9333784631915e-07
  45    1.0552530829695e-05
  46    4.5103196165394e-07
  47    -1.5753645057366e-06
  48    -6.7545846899362e-06
  49    -7.3678906753382e-06
  50    0.0001421711535838
  51    -1.9489314958121e-05
  52    -8.4299067547921e-06
  53    5.9029968100202e-06
  54    -1.6563300489596e-05
  55    -4.1676453798026e-05
  56    4.3416290875241e-05
  57    1.3604223862599e-05
  58    3.1236149995329e-06
  59    -8.5895536187921e-06
  60    -6.7013386076219e-06
  61    3.478381935268e-06
  62       1.0010232869402
  63    0.00061706369186408
  64    -0.0059563436591181
  65    0.00080766803676602
  66    -0.00046298039344201
  67    -0.0023248197579881
  68    -0.00021836750944503
  69    3.349044616741e-05
  70    0.00049881390060581
  71    -0.0001028354846092
  72    6.5802220249434e-05
  73    -3.1614317794455e-05
  74    5.3015640215065e-06
  75    1.7647493900641e-05
  76    -0.00022884258943911
  77    -9.486538989799e-05
  78    5.810448201279e-06
  79    -5.0685458871658e-05
  80    -0.00015208496961833
  81    9.9953381075851e-05
  82    0.0001668708686465
  83    -0.00071694330747739
  84    -3.5791984670679e-06
  85    5.294442024616e-05
  86    -2.0500812193738e-05
  87    -3.9576002156481e-05
  88    1.4945736864302e-05
  89    -0.00044108242716699
  90    -1.6273913216018e-05
  91    -1.509048622815e-05
  92    1.7222111483548e-05
  93    -3.1461935657469e-06
  94    -6.9924130089792e-06
 Sym= A
 Ene=               4
 Spin= Alpha
 Occup=    1.00000
   1    -0.00018817162603251
   2    0.00033331839157877
   3    0.0037763107504534
   4    -0.00042808139053154
   5    0.00082800491285097
   6    -0.00064250378724066
   7    0.00025436390186731
   8    0.0014404622959306
   9    -0.00076455557002368
  10    5.5131136686638e-06
  11    4.0671603197749e-05
  12    -0.00010275946888302
  13    -3.6582545992975e-05
  14    -6.7905746058463e-05
  15    7.474846121843e-05
  16    9.5180159290418e-05
  17    -0.0016798129014916
  18    0.00012298115016554
  19    -3.1830416858116e-06
  20    -2.398217786836e-06
  21    0.00073117341686458
  22    -0.00043646424194453
  23    0.00030444623337406
  24    1.6382105756639e-05
  25    -8.6939114192698e-07
  26    -5.8908799300878e-05
  27    -3.9524830742223e-05
  28    3.3974287975873e-05
  29    8.5913904036391e-05
  30    -4.0161575132185e-05
  31    -3.1099735008853e-05
  32    6.0747364002665e-05
  33    -1.6044694770253e-05
  34    -7.0008428033951e-06
  35    -5.7508512030944e-06
  36    0.00012218413979687
  37    -1.1646620115669e-05
  38    1.1558493316324e-05
  39    1.208969125687e-05
  40    -7.279484911418e-05
  41    6.7322625775823e-05
  42    -1.4501965280373e-05
  43    -6.760526131944e-06
  44    -4.7547845310166e-06
  45    1.6436737691914e-07
  46    -1.5018631503024e-05
  47    -1.073509123055e-06
  48    -6.1814481465445e-05
  49    -0.00012382757113779
  50    0.00037770491798271
  51    2.1302811982663e-05
  52    3.2900350384518e-05
  53    -1.271092988411e-05
  54    -4.3913584796769e-05
  55    -9.0877754383746e-05
  56    2.7568276141513e-05
  57    1.2155704356711e-05
  58    2.1127591813698e-06
  59    6.444400897426e-06
  60    -9.2014884853614e-06
  61    -8.0636865754423e-08
  62    9.9626319266233e-05
  63    0.00016464557409922
  64    -0.0007170937485414
  65    -1.7484020901359e-06
  66    2.4596589332003e-05
  67    5.461104434366e-05
  68    -5.1339025710275e-05
  69    -0.00026798191350174
  70    0.0003532321497696
  71    -1.9327564910947e-05
  72    7.8439453685017e-06
  73    1.2049010096888e-05
  74    -5.4239793114033e-06
  75    -1.4500189211894e-05
  76    -0.00025416221338319
  77    -9.7392805056988e-05
  78    2.4637472011417e-06
  79    -0.00013862089910631
  80    8.7193767832218e-05
  81       1.0010216935229
  82    0.0004508989524997
  83    -0.0061581490005353
  84    0.00075951509707539
  85    -0.0019640475621219
  86    0.0015736296061102
  87    -0.00022454116451094
  88    0.0003041902913876
  89    -0.00032628978187871
  90    -1.3306751370521e-05
  91    -4.1363836072369e-05
  92    8.7500715117648e-05
  93    5.6987418233403e-05
  94    5.9479845946027e-05
 Sym= A
 Ene=               5
 Spin= Alpha
 Occup=    1.00000
   1    7.3877576029869e-05
   2    9.4189110120507e-05
   3    -0.0016700133886625
   4    -0.00012171200019452
   5    -3.1690480075967e-06
   6    7.2977457066164e-06
   7    -0.00072771604401087
   8    -0.00043659275030956
   9    0.00031168310669639
  10    -7.2263047859904e-06
  11    3.4435386389102e-05
  12    -4.9374197466534e-05
  13    -5.4310518828144e-05
  14    -1.6043144250397e-05
  15    -0.00019696989632694
  16    0.00027013670408006
  17    0.0037631500307738
  18    0.00039986467676161
  19    0.00081864737545419
  20    -0.00051439222205734
  21    -0.00025511885106674
  22    0.0012070949602004
  23    -0.0010968331975574
  24    -3.1831980324136e-05
  25    -4.8486420385681e-05
  26    -8.199734343678e-05
  27    -5.6859492719792e-05
  28    5.9013777010432e-05
  29    -0.00025633276844486
  30    -8.3719566860509e-05
  31    -4.0669767762396e-06
  32    -0.0001318061571492
  33    0.00010199922857816
  34    0.0001000776401575
  35    0.00016720527802937
  36    -0.000716588146947
  37    7.3501562756432e-07
  38    -3.7664107985247e-05
  39    -4.0254938641252e-05
  40    5.1276128754121e-05
  41    -0.0004187259884475
  42    0.00013141441824363
  43    1.7900288144738e-05
  44    -1.132602794406e-05
  45    -3.3899570688718e-06
  46    1.6646141660583e-05
  47    1.240751320673e-05
  48       1.0010220833413
  49    0.00079854696630964
  50    -0.0057475126856833
  51    -0.00067784299048846
  52     -0.00192736534656
  53    0.0011998007656831
  54    0.00027923179676573
  55    0.0005598119243812
  56    -0.00024472904900103
  57    1.075398332609e-05
  58    4.3543358870517e-05
  59    8.2824365738468e-05
  60    7.3791657831426e-05
  61    -6.248336428871e-05
  62    -6.7292203913315e-06
  63    -5.8150016706778e-06
  64    0.0001177160928198
  65    1.024997402732e-05
  66    -6.8137818698662e-06
  67    -1.4544971689795e-05
  68    7.0929533356775e-05
  69    3.7304191215046e-05
  70    -5.7493737259451e-05
  71    1.3750908925477e-05
  72    -2.7205028626836e-06
  73    -8.403707821009e-06
  74    -3.0837408786828e-06
  75    -4.1976298559385e-06
  76    8.4942768970035e-05
  77    -4.3489273630222e-05
  78    3.1627633947982e-05
  79    3.6357179092809e-05
  80    -5.159999663475e-05
  81    -6.2118722374395e-05
  82    -0.00012500791834062
  83    0.00037839379709454
  84    -2.5031816685471e-05
  85    2.0052363003705e-05
  86    -2.5156851018545e-05
  87    4.3024136631309e-05
  88     -5.7501958611e-05
  89    7.5354260756441e-05
  90    6.5867410677124e-06
  91    5.2290746696754e-07
  92    8.8777688806074e-06
  93    -1.2181717749059e-05
  94    2.2756138797703e-06
 Sym= A
 Ene=               6
 Spin= Alpha
 Occup=    1.00000
   1    0.00095390666472377
   2     0.015698363740548
   3     0.027424589224686
   4    -0.015009206440009
   5     0.027807785572415
   6    -0.021010450341559
   7    -0.0088460276432005
   8     0.038340782579216
   9     -0.03025986570551
  10    -0.020194165565104
  11    -0.013938393712401
  12     0.032326733270063
  13    0.0024614530488295
  14     -0.00986680798716
  15    0.0010162668342687
  16     0.017507393440505
  17     0.027327035439178
  18    -0.016768589484242
  19    1.7478516795569e-05
  20     0.006864746540041
  21    0.0067301903949169
  22    0.00033526760971413
  23     0.010034049116815
  24    -0.00015680034846253
  25    8.5539412582759e-05
  26    4.9240391515391e-05
  27    4.9925623545118e-05
  28    -0.00050073589130588
  29    0.0089572243186802
  30    -0.018111010216481
  31    0.0024191215835907
  32    0.0006305309659467
  33    -0.0015028534108494
  34    -0.00069116369198202
  35    -0.0034509842143194
  36    -0.0027331106058027
  37    0.0041263007502149
  38    -0.0034621213519048
  39    -0.0011995304905655
  40    -0.00023020088970578
  41    -0.004065342171363
  42    -0.001207846956986
  43    -6.6664340417637e-05
  44    -0.00017210906886536
  45    3.8819396075325e-06
  46    0.0004574386705507
  47    -0.00031628721413547
  48    0.00076381274986254
  49    -0.0014380010497295
  50    -0.010944260995521
  51     0.005095920661935
  52    0.0050928345124795
  53    -0.0047671744890535
  54    0.0069478281467924
  55    0.0057584804021409
  56    -0.0049366254717663
  57    0.00013486502509058
  58    -2.0963868433342e-07
  59    0.00015333478386642
  60    0.00020813574762565
  61    5.1020383623976e-06
  62    0.00052428334157428
  63    -0.00045168137644924
  64    -0.002849010102603
  65     -0.29598704935049
  66      0.55352698421565
  67     -0.21377567106096
  68     -0.20628864987258
  69      0.38315989079193
  70     -0.14629762678397
  71    0.0079147907703993
  72    0.0043194708637987
  73    -0.010168076362751
  74    0.00021992260052627
  75    0.0061872647091349
  76     0.025578234259298
  77     0.019281306894703
  78    -0.00063360023466774
  79    -0.00051208643144722
  80    0.0015455814690572
  81    0.0018743676411431
  82    -0.013560779584789
  83    -0.051516902406764
  84    -0.0061789095603052
  85      0.02597184485915
  86     -0.03811603994862
  87    -0.006447878875239
  88     0.024034960776247
  89    -0.035951406568531
  90    0.00024865055649503
  91    -0.00060816973815426
  92    0.00061264330862916
  93    -0.00014494382201754
  94    -0.00038476126811268
 Sym= A
 Ene=               7
 Spin= Alpha
 Occup=    1.00000
   1    0.00077610325285635
   2     0.026048135422686
   3     0.083288233091556
   4     0.048675687890485
   5     0.005188231393318
   6    -0.0023306663233664
   7      0.05411656911344
   8    -0.014166670355249
   9    0.0049792334737523
  10    -0.00027050308028337
  11    -0.0018387883504123
  12    0.00057195038362134
  13    0.00091038495470836
  14    0.0019571730550647
  15    0.0029490709079816
  16    -0.00012007359002153
  17    -0.039197984052054
  18    0.0026595715536261
  19    -0.0019580065722624
  20    0.0029431553298376
  21      0.04767636102868
  22     0.019531138330287
  23    0.0080077495926088
  24    -0.023921584048345
  25    -0.010856737931534
  26     0.017740384949366
  27     0.011521923830612
  28      0.02721190955626
  29    -0.050457375736817
  30     -0.04856066807931
  31    -0.0020452469255609
  32    -0.0031498638706695
  33    0.00055720189036287
  34    -0.00088624202961049
  35    -0.00028808798765776
  36     0.010990715530709
  37    -0.0038462281460243
  38    0.0022704558487274
  39    -0.001519708682915
  40    -0.0076513677645156
  41    0.0017945315830925
  42    0.0013996436807207
  43    -0.00053217468765618
  44    -0.00026978274080949
  45    0.00034305257787311
  46    0.0003386151805444
  47    0.0003495914200646
  48    0.00088637400282135
  49    0.0078951364133097
  50    -0.00074934062965183
  51      0.55099964542626
  52     0.026743547451831
  53      0.38052714831287
  54      0.38046154486665
  55     0.021047960491596
  56      0.26181541059015
  57    0.0069731731125692
  58    0.0031867455137684
  59    -0.0061339823120286
  60    -0.0031502499198978
  61    -0.0099528143326799
  62    0.00030162023446051
  63    -0.00077679484624213
  64    -0.0051575085239097
  65    -0.0047586226805302
  66    0.00045383573469487
  67    0.0040395013530144
  68    -0.0092883404702113
  69    0.0033183109553812
  70    0.0041230422740557
  71    -0.00028278286740152
  72    -0.0006455939078356
  73    -0.00028508255135785
  74    0.00020684308477527
  75    -7.6921888985786e-05
  76    -0.011130585092533
  77    -0.013566602748631
  78    0.0024406727699046
  79    -0.00038202709229831
  80    -0.0012835587811952
  81    0.00097994342636744
  82    0.0070013140382174
  83    0.0070264403154435
  84     0.012644495587086
  85    -0.00029586559749363
  86    -0.0018949423119159
  87    0.00038630336835648
  88    -0.0020242383748642
  89    0.0023009869541158
  90    0.00084014996147049
  91    0.00091280226227963
  92    -0.00038102747287605
  93    -0.0014443333345012
  94    -0.0011069156927064
 Sym= A
 Ene=               8
 Spin= Alpha
 Occup=    1.00000
   1    0.0016323216207959
   2     0.034636758037124
   3     0.085701276280008
   4      0.04312202455219
   5    -0.0088896957184611
   6    -0.0037544179602319
   7     0.022086173016846
   8    0.0054149800509924
   9      0.01198322658594
  10    -0.0008461938146992
  11    -0.0014055837779659
  12    -0.00088895257476991
  13    0.0013483436162489
  14    -0.00057189925778824
  15    0.0029926326012289
  16     0.003804605148539
  17    -0.013581506621225
  18    0.00088011841684551
  19    -0.00059944047693404
  20    -0.00093455665554849
  21     0.034364663614575
  22    -0.015447374443454
  23    0.0072304045911005
  24    -0.022703030904999
  25    -0.010692441074011
  26    -0.016755129986183
  27     0.012436446500235
  28    -0.026469923547335
  29    -0.050865592931427
  30    -0.048810434676986
  31    -0.0016370923779292
  32    0.0028493002824588
  33    0.00097343682625217