[Molden Format]
made by pyscf v[2.0.1]
[Atoms] (AU)
C   1   6     0.00000000000000     0.00000000000000     0.00000000000000
C   2   6     2.85272299873892     0.00000000000000     0.00000000000000
H   3   1     3.62066923017674     0.00000000000000     1.90331545357504
F   4   9     3.65943188126013    -2.04308229183900    -1.24074875274501
F   5   9     3.65943188126013     2.04308229183900    -1.24074875274501
F   6   9    -0.80670888252121     0.36279929541697    -2.36262976149657
H   7   1    -0.76794623143782     1.45802422671364     1.22342759088295
F   8   9    -0.80670888252121    -2.26373667011121     0.76755391149953
[GTO]
1 0
 s    8 1.00
                  6665  0.00069158396281299
                  1000  0.0053257961529341
                   228   0.027060721042034
                 64.71    0.10165684614077
                 21.06     0.2745748236174
                 7.495    0.44829431892377
                 2.797    0.28490261071525
                0.5215   0.015194859206082
 s    8 1.00
                  6665  -0.00029326965268655
                  1000  -0.0023180354739745
                   228  -0.011499786038565
                 64.71  -0.046826727009787
                 21.06   -0.12846616875047
                 7.495   -0.30126627246289
                 2.797   -0.25563070233011
                0.5215      1.093793361012
 s    1 1.00
                0.1596                   1
 p    3 1.00
                 9.439   0.056979251590039
                 2.002    0.31320721150073
                0.5456    0.76037674173753
 p    1 1.00
                0.1517                   1
 d    1 1.00
                  0.55                   1

2 0
 s    8 1.00
                  6665  0.00069158396281299
                  1000  0.0053257961529341
                   228   0.027060721042034
                 64.71    0.10165684614077
                 21.06     0.2745748236174
                 7.495    0.44829431892377
                 2.797    0.28490261071525
                0.5215   0.015194859206082
 s    8 1.00
                  6665  -0.00029326965268655
                  1000  -0.0023180354739745
                   228  -0.011499786038565
                 64.71  -0.046826727009787
                 21.06   -0.12846616875047
                 7.495   -0.30126627246289
                 2.797   -0.25563070233011
                0.5215      1.093793361012
 s    1 1.00
                0.1596                   1
 p    3 1.00
                 9.439   0.056979251590039
                 2.002    0.31320721150073
                0.5456    0.76037674173753
 p    1 1.00
                0.1517                   1
 d    1 1.00
                  0.55                   1

3 0
 s    3 1.00
                 13.01   0.033498726389998
                 1.962    0.23480080117413
                0.4446     0.8136829578829
 s    1 1.00
                 0.122                   1
 p    1 1.00
                 0.727                   1

4 0
 s    8 1.00
                 14710  0.00072067370873197
                  2207  0.0055504869689163
                 502.8   0.028254207662589
                 142.6    0.10639582836653
                 46.47    0.28668420124307
                  16.7    0.44843796582416
                 6.356    0.26464118141135
                 1.316   0.015326060993048
 s    8 1.00
                 14710  -0.00032119389049893
                  2207  -0.0025461915683188
                 502.8  -0.012643359507821
                 142.6   -0.05195749170489
                 46.47   -0.14344713812646
                  16.7   -0.33243762329603
                 6.356   -0.21865906750347
                 1.316     1.0955904138622
 s    1 1.00
                0.3897                   1
 p    3 1.00
                 22.67   0.064834021493887
                 4.977    0.34053535983101
                 1.347    0.73464640679382
 p    1 1.00
                0.3471                   1
 d    1 1.00
                  1.64                   1

5 0
 s    8 1.00
                 14710  0.00072067370873197
                  2207  0.0055504869689163
                 502.8   0.028254207662589
                 142.6    0.10639582836653
                 46.47    0.28668420124307
                  16.7    0.44843796582416
                 6.356    0.26464118141135
                 1.316   0.015326060993048
 s    8 1.00
                 14710  -0.00032119389049893
                  2207  -0.0025461915683188
                 502.8  -0.012643359507821
                 142.6   -0.05195749170489
                 46.47   -0.14344713812646
                  16.7   -0.33243762329603
                 6.356   -0.21865906750347
                 1.316     1.0955904138622
 s    1 1.00
                0.3897                   1
 p    3 1.00
                 22.67   0.064834021493887
                 4.977    0.34053535983101
                 1.347    0.73464640679382
 p    1 1.00
                0.3471                   1
 d    1 1.00
                  1.64                   1

6 0
 s    8 1.00
                 14710  0.00072067370873197
                  2207  0.0055504869689163
                 502.8   0.028254207662589
                 142.6    0.10639582836653
                 46.47    0.28668420124307
                  16.7    0.44843796582416
                 6.356    0.26464118141135
                 1.316   0.015326060993048
 s    8 1.00
                 14710  -0.00032119389049893
                  2207  -0.0025461915683188
                 502.8  -0.012643359507821
                 142.6   -0.05195749170489
                 46.47   -0.14344713812646
                  16.7   -0.33243762329603
                 6.356   -0.21865906750347
                 1.316     1.0955904138622
 s    1 1.00
                0.3897                   1
 p    3 1.00
                 22.67   0.064834021493887
                 4.977    0.34053535983101
                 1.347    0.73464640679382
 p    1 1.00
                0.3471                   1
 d    1 1.00
                  1.64                   1

7 0
 s    3 1.00
                 13.01   0.033498726389998
                 1.962    0.23480080117413
                0.4446     0.8136829578829
 s    1 1.00
                 0.122                   1
 p    1 1.00
                 0.727                   1

8 0
 s    8 1.00
                 14710  0.00072067370873197
                  2207  0.0055504869689163
                 502.8   0.028254207662589
                 142.6    0.10639582836653
                 46.47    0.28668420124307
                  16.7    0.44843796582416
                 6.356    0.26464118141135
                 1.316   0.015326060993048
 s    8 1.00
                 14710  -0.00032119389049893
                  2207  -0.0025461915683188
                 502.8  -0.012643359507821
                 142.6   -0.05195749170489
                 46.47   -0.14344713812646
                  16.7   -0.33243762329603
                 6.356   -0.21865906750347
                 1.316     1.0955904138622
 s    1 1.00
                0.3897                   1
 p    3 1.00
                 22.67   0.064834021493887
                 4.977    0.34053535983101
                 1.347    0.73464640679382
 p    1 1.00
                0.3471                   1
 d    1 1.00
                  1.64                   1

[5d]
[7f]
[9g]

[MO]
 Sym= A
 Ene=               0
 Spin= Alpha
 Occup=    1.00000
   1       1.0018691527478
   2    -0.00090592683740261
   3    -0.0094960894688347
   4    -0.00016646939601876
   5    -0.002251801381269
   6    -0.0018272989696252
   7    -0.0016866947670246
   8    -0.0010782569858222
   9    -0.00087992539045273
  10    0.0001313425623544
  11    6.5493177862868e-05
  12    -0.00021471070196637
  13    -0.00017272985054213
  14    8.5203858571681e-05
  15    -0.00020794819292672
  16    -0.00083971958142645
  17    0.0029054458725664
  18    0.0010879807363363
  19    -7.0046917165012e-05
  20    5.4691271743816e-05
  21    -0.0011506647016997
  22    -3.6190962352208e-05
  23    -0.00013797781162313
  24    8.3326698218054e-05
  25    -4.6658469840302e-05
  26    -1.8340739901675e-05
  27    -0.0001835766646606
  28    -9.3249273541547e-06
  29      0.00015722273896
  30    0.00050386727531243
  31    -5.8270082995578e-05
  32    3.8088407075527e-06
  33    -6.2455663016633e-05
  34    4.2981072804587e-06
  35    2.735829503683e-05
  36    -0.00020943333258729
  37    -0.00011082049550132
  38    1.6653172684607e-05
  39    -2.1324189111967e-05
  40    -0.00018396170602744
  41    -9.7821823546164e-05
  42    -6.1319807215988e-05
  43    -1.0649022311503e-05
  44    -2.4663997359629e-06
  45    1.2639242217281e-06
  46    2.7345443296112e-05
  47    -2.5074622284381e-06
  48    -2.1223379126737e-05
  49    3.2774062298975e-05
  50    5.0760825613267e-05
  51    -0.00019449795220934
  52    -4.3771444860803e-05
  53    6.2890587820702e-05
  54    -0.00035642490957365
  55    5.0673895834474e-05
  56    1.2345669242792e-05
  57    -9.7516705587399e-06
  58    1.942838653203e-06
  59    -1.1466121172468e-05
  60    2.1428451210867e-05
  61    1.6680727116934e-06
  62    0.00012114710751221
  63    -0.00013969183526389
  64    -0.00059734377399061
  65    -0.00044505341785875
  66    0.00025272541199939
  67    -0.0011766419354502
  68    -0.00042277953906665
  69    0.00047962142501764
  70     -0.00163831750516
  71    -0.00025037416714525
  72    -0.0001286827331614
  73    6.2637885992642e-05
  74    -2.6074403729464e-05
  75    2.7610617623998e-05
  76    -0.0031346078528985
  77    0.00075395452752012
  78    3.7063168395463e-05
  79    0.0002848256606006
  80    0.00022204599439939
  81    0.00013111293825478
  82    -0.00012115552474864
  83    -0.0006561368773339
  84    -0.0004487586748744
  85    -0.0011082045813802
  86    0.00046213476389215
  87    -0.00042647566626853
  88    -0.0015602750605239
  89    0.00075902900441815
  90    0.00011956144519687
  91    5.0012183438506e-05
  92    0.00013936943938971
  93    0.00019255293060266
  94    -0.00012577372418334
 Sym= A
 Ene=               1
 Spin= Alpha
 Occup=    1.00000
   1    -0.00020794756449727
   2    -0.00083970607916879
   3    0.0029054585294499
   4    -0.0010879655377623
   5    8.6924880068438e-05
   6    -1.850329710857e-05
   7    0.0011506713977427
   8    -8.2433000555015e-05
   9    -0.00011641393861769
  10    8.7631040354871e-05
  11    3.7132867022147e-05
  12    -2.2511609936694e-05
  13    -0.00018108991270368
  14    2.974824302562e-05
  15       1.0018691532789
  16    -0.00090592362385862
  17    -0.009496096443103
  18    0.00016644942359568
  19    4.7636968114809e-05
  20    -0.002899577800207
  21    0.0016866907915621
  22    1.9028797295658e-05
  23    -0.0013916050050048
  24    -7.9610259534419e-05
  25    -0.00010737009079801
  26    -1.0318617861859e-05
  27    -0.00029452232946578
  28    4.596846573175e-06
  29    -0.0031346391720264
  30    0.00075394233200539
  31    -3.7062290217283e-05
  32    -1.2985406117286e-05
  33    0.00036091925741269
  34    0.00012114700780363
  35    -0.00013968641097679
  36    -0.00059733814459813
  37    0.00044505345185754
  38    -0.0010637952496607
  39    -0.00056272516971964
  40    0.00042278095412975
  41    -0.0015633102063061
  42    -0.00068567314382311
  43    3.6686748705884e-05
  44    6.1564522351442e-05
  45    -0.00021549824509248
  46    0.00013966025417993
  47    0.00011632391785729
  48    0.0001311131445587
  49    -0.00012115258679974
  50    -0.00065613430786006
  51    0.0004487577440641
  52    0.0010663474190284
  53    -0.00055187048767272
  54    0.00042647643986559
  55    0.0015843702469958
  56    -0.00070733830247746
  57    3.5326256752758e-05
  58    6.4200833245981e-05
  59    0.00022098511033071
  60    0.00014391974419263
  61    -0.00011915685224039
  62    4.2980829555754e-06
  63    2.735673980378e-05
  64    -0.00020943671463487
  65    0.00011082398679305
  66    -2.7041240284247e-05
  67    -9.5342726633466e-07
  68    0.00018396266331399
  69    1.5903667495422e-05
  70    -0.00011435400102389
  71    -1.4094528972804e-05
  72    3.5064885203281e-06
  73    4.602267483712e-06
  74    2.5356338597412e-05
  75    2.7755531037645e-07
  76    0.00015722770508005
  77    0.00050386735109282
  78    5.827069622761e-05
  79    -5.0292254574852e-05
  80    -3.7228205093684e-05
  81    -2.1223534211904e-05
  82    3.2772742946483e-05
  83    5.0758639510922e-05
  84    0.0001944963695167
  85    7.6312269267766e-05
  86    6.8971025744584e-06
  87    0.00035642296393333
  88    -2.3115774057396e-05
  89    4.6756106634119e-05
  90    -2.1837095220642e-05
  91    -2.5267025494477e-06
  92    2.4355182332264e-07
  93    1.4451002208616e-05
  94    -4.1593130205082e-07
 Sym= A
 Ene=               2
 Spin= Alpha
 Occup=    1.00000
   1    -3.7621606261913e-05
   2    7.306795692592e-05
   3    0.0038282010300613
   4    -0.00027414674575548
   5    -0.00052412000758909
   6    0.00018572623258305
   7    0.00035145899524931
   8    -0.0015728938410425
   9    0.00013757412369395
  10    2.2489844157439e-05
  11    -1.0402825160076e-07
  12    2.8242938955114e-05
  13    6.7324906794973e-05
  14    -1.7048275193016e-05
  15    5.5809515237191e-05
  16    7.3430086579342e-05
  17    -0.0015065041314979
  18    0.00013405726375894
  19    -3.1079881662479e-05
  20    -8.7884654672017e-06
  21    0.00080735842854928
  22    0.00034543018845417
  23    0.00015804897471547
  24    8.3687497358444e-06
  25    -1.4346508160547e-05
  26    -2.2366105271097e-05
  27    -0.0001095098515579
  28    -2.0987731693372e-05
  29    8.3451748425381e-05
  30    -0.00020457052591917
  31    3.0598934947602e-05
  32    -7.0402159716439e-06
  33    -8.4048357581867e-06
  34    4.5663048170111e-06
  35    1.1568717575586e-05
  36    0.00010963808456474
  37    -3.7629430938722e-05
  38    -1.8819563929666e-05
  39    -1.684184684375e-05
  40    0.00010005995063487
  41    3.9699002481656e-05
  42    2.8143208062695e-05
  43    1.0342763288202e-05
  44    9.9469945517578e-06
  45    -9.1700614995012e-06
  46    -2.2112067101087e-05
  47    9.3066510411463e-07
  48    -2.833175984389e-05
  49    -4.8511019427693e-05
  50    0.00014743842053789
  51    2.2828791437254e-05
  52    -4.5980751216701e-07
  53    8.0337315888727e-06
  54    -0.00016125723149441
  55    -5.0328657382124e-05
  56    -1.3750967857067e-05
  57    -4.5965601621387e-06
  58    2.0515943053356e-06
  59    6.3975070982486e-06
  60    -2.838913666102e-06
  61    -4.119206892162e-06
  62    0.0001032173031136
  63    0.00018952726031115
  64    -0.00074229358282119
  65    -5.0178452765902e-06
  66    -4.1625354559739e-05
  67    -2.8521365959332e-05
  68    -5.6507481027941e-05
  69    0.00035731829128619
  70    -0.00022759955428365
  71    -8.8287789826837e-06
  72    -2.5648847582482e-06
  73    2.8330957660709e-05
  74    2.5328784226863e-06
  75    1.7950610057966e-05
  76    -0.00022301259908828
  77    -8.0617428038918e-05
  78    -1.5097737675998e-07
  79    0.00017624994895998
  80    -3.0308938751872e-05
  81       1.0010163232546
  82    -0.0043847347313519
  83     -0.01163459211129
  84    0.0010407093987369
  85    0.0028948934562699
  86    -0.00098834124680703
  87    -5.8873474327021e-05
  88    2.6311282448116e-05
  89    2.821511000681e-05
  90    4.5130068685212e-05
  91    2.1649608415615e-05
  92    7.328719554278e-05
  93    9.6769889463474e-05
  94    -8.3368746351649e-05
 Sym= A
 Ene=               3
 Spin= Alpha
 Occup=    1.00000
   1    5.5802274869453e-05
   2    7.3452289534337e-05
   3    -0.0015063111742203
   4    -0.00013398274877053
   5    1.3225314711153e-05
   6    -2.9441936819937e-05
   7    -0.00080724025408605
   8    -0.00010100323264693
   9    0.00036622622544734
  10    3.7585799703751e-05
  11    2.5315085090301e-05
  12    -5.0664826094319e-05
  13    -9.263724429351e-05
  14    -2.5176933795893e-06
  15    -3.7688214025143e-05
  16    7.2811662796546e-05
  17    0.0038280309339597
  18    0.00027402412794818
  19    0.00047884586129968
  20    -0.00028189780805851
  21    -0.00035138114089867
  22    0.0011164468967969
  23    -0.0011165187020207
  24    -7.4583938935343e-06
  25    1.3099354114017e-05
  26    5.7238038104886e-05
  27    5.0045648019714e-05
  28    -1.0839737642621e-05
  29    -0.00022301285035021
  30    -8.0536913471154e-05
  31    1.3360364795121e-07
  32    -0.0001365270005971
  33    0.00011553176817392
  34    0.0001032165515596
  35    0.00018953325940348
  36    -0.00074227459143532
  37    5.0325207804102e-06
  38    4.9638859601985e-06
  39    -5.0241646239301e-05
  40    5.6516593649162e-05
  41    -0.00040398296520352
  42    0.00012741201551305
  43    2.1820822474368e-05
  44    -1.2104664613745e-05
  45    -1.3621990581105e-06
  46    2.0230401983475e-05
  47    1.3503451734166e-05
  48       1.0010163892567
  49    -0.0043811602513644
  50    -0.011630476720095
  51    -0.0010395539621899
  52    -0.0026164571009473
  53    0.0015817836831255
  54    5.9664552978609e-05
  55    5.7060312579976e-06
  56    3.7931405628571e-05
  57    1.8740586252858e-05
  58    4.9962195123071e-05
  59    9.8886441134669e-05
  60     8.15406911022e-05
  61    -7.0199816727258e-05
  62    4.5680613651605e-06
  63    1.157341545154e-05
  64    0.00010962815055403
  65    3.7630943343963e-05
  66    -8.0319864648724e-07
  67    -2.5232010631882e-05
  68    -0.00010007284793108
  69    -3.9470319808542e-06
  70    4.8501269269167e-05
  71    4.6549499793467e-06
  72    -7.1064358388636e-06
  73    -3.6592786326942e-06
  74    -2.5396216554298e-05
  75    -7.0220328686103e-06
  76    8.3441949243412e-05
  77    -0.00020455850972514
  78    -3.0598826376841e-05
  79    -1.9138548968209e-06
  80    -1.0796836005345e-05
  81    -2.8331907187837e-05
  82    -4.8526479539636e-05
  83    0.00014739999802364
  84    -2.2871418972425e-05
  85    6.4198263610243e-06
  86    4.8155780940814e-06
  87    0.00016122071989452
  88    2.1793201186296e-05
  89    -4.7389789412556e-05
  90    6.3476257505725e-06
  91    1.8364704374054e-06
  92    -4.2072024227606e-06
  93    3.4814378930029e-06
  94    -4.2178653292466e-06
 Sym= A
 Ene=               4
 Spin= Alpha
 Occup=    1.00000
   1    -2.8980462734986e-05
   2    8.3786506489553e-05
   3    0.0034953109759992
   4    -0.00029949944414938
   5    9.2318239831145e-05
   6    -0.00055025973641611
   7    0.00018846816422485
   8    -9.0747388254875e-05
   9    -0.0015657473041573
  10    -7.3524177232676e-05
  11    -1.9600826651844e-05
  12    7.6684400265346e-06
  13    -3.7146004626892e-06
  14    1.0390625252733e-05
  15    4.9652444118821e-05
  16    7.1118292478429e-05
  17    -0.0013425348735756
  18    0.00016603899049538
  19    -8.0311898734526e-06
  20    -1.0716694550234e-05
  21    0.00041963793206997
  22    5.4293299229258e-05
  23    0.00038987754380558
  24    8.9745378800135e-05
  25    -1.2331993199048e-05
  26    -1.9241735549632e-05
  27    -4.5782340768893e-05
  28    -5.1022678089192e-06
  29    1.2147018297221e-05
  30    8.757276471543e-05
  31    -1.5684520552921e-05
  32    1.451863350998e-06
  33    -1.5124698288138e-05
  34    1.2589642372412e-05
  35    2.7077439032319e-05
  36    8.9953296878968e-05
  37    -5.7794978126006e-05
  38    -1.0402044017443e-05
  39    -8.3430286296651e-06
  40    0.0001654344051665
  41    5.4325149250834e-05
  42    1.6674945710342e-05
  43    1.4235012652902e-05
  44    -3.1318661118148e-06
  45    8.2469673003905e-07
  46    -1.9629912900263e-05
  47    1.2202712210599e-05
  48    3.7931134514979e-06
  49    1.0553058562446e-05
  50    8.904419001983e-05
  51    -3.6033190695618e-05
  52    2.6282830974323e-05
  53    -1.537250891172e-06
  54    0.00010581211188998
  55    -7.7486246009145e-05
  56    -1.5117623417023e-05
  57    1.2833357636872e-05
  58    -2.5836106115744e-06
  59    -1.2983217730903e-06
  60    -1.7640511515032e-05
  61    -1.2203960826741e-05
  62       1.0010139946253
  63    -0.0043769103868093
  64    -0.011598879650182
  65    0.0010211248366377
  66    -0.00045532167494595
  67    0.0030241503871136
  68    -5.9754403557179e-05
  69    6.9216131339519e-05
  70    2.4229304965259e-05
  71    -0.00012287993466444
  72    -8.7127007344775e-05
  73    3.8857447084417e-05
  74    -3.7564235128628e-06
  75    9.9856734418116e-06
  76    -0.00021523670366806
  77    -0.00013823837153994
  78    -9.9959398234726e-06
  79    7.4669229353206e-07
  80    0.00017913938561948
  81    0.00010437297214482
  82    0.00019215736962028
  83    -0.00073509359437832
  84    -3.2412286659834e-06
  85    -3.6226743081404e-05
  86    -3.4177979648191e-05
  87    -6.7469110226854e-05
  88    -0.00015835742907958
  89    0.00038469429200718
  90    -3.7604452634151e-06
  91    1.7870256087993e-05
  92    2.9515478004834e-05
  93    2.4700799669312e-06
  94    -3.7912551458427e-07
 Sym= A
 Ene=               5
 Spin= Alpha
 Occup=    1.00000
   1    4.9648724986416e-05
   2    7.1141199133332e-05
   3    -0.0013423751859679
   4    -0.00016595871953544
   5    -3.0471723585248e-06
   6    -1.3043320079167e-05
   7    -0.00041953643632101
   8    0.00026378009509736
   9    0.00029222274677486
  10    1.7605278927321e-05
  11    1.1843750436536e-05
  12    5.0649107775723e-05
  13    -8.7431286916802e-05
  14    6.178568815613e-06
  15    -2.9014887292716e-05
  16    8.364313675169e-05
  17    0.0034952076731703
  18    0.00029944311118419
  19    -0.00048065744319665
  20    -0.00028284862168567
  21    -0.00018839465584099
  22    -0.0011410982036938
  23    -0.0010759829048717
  24    -3.9774580046683e-07
  25    4.6144047836743e-06
  26    -6.3215612244526e-05
  27    3.8533285668378e-05
  28    2.1653875859223e-05
  29    -0.00021525118832671
  30    -0.00013821434418319
  31    9.9852402624607e-06
  32    0.00013675979767254
  33    0.00011571995444483
  34       1.0010140310621
  35    -0.0043750079662646
  36    -0.011596689950359
  37    -0.0010200211945709
  38    0.0026086256703147
  39    0.0015948765433936
  40    6.0516135330463e-05
  41    -2.6398442392412e-05
  42    6.8456104097772e-05
  43    2.0340435941596e-05
  44    4.8367396236681e-05
  45    -9.9911408833734e-05
  46    7.8929724114188e-05
  47    7.3184338211323e-05
  48    0.00010437333997115
  49    0.00019215634159163
  50    -0.00073509976566174
  51    3.249584486792e-06
  52    -2.9207186158155e-06
  53    -4.9740136295093e-05
  54    6.7471416034938e-05
  55    0.00039646524780037
  56    0.00012595469763075
  57    2.3468598716776e-05
  58    -1.1198089933838e-05
  59    3.1338496412882e-06
  60    1.8192173396626e-05
  61    -1.3933690045296e-05
  62    1.2590816429859e-05
  63    2.7082586819814e-05
  64    8.9952836948738e-05
  65    5.7793860776316e-05
  66    2.8988739178158e-07
  67    -1.3325093275669e-05
  68    -0.0001654517578874
  69    -2.2150117837121e-05
  70    5.2336126223228e-05
  71    1.2384062974859e-05
  72    -7.3336378246726e-06
  73    2.6176840067106e-06
  74    -2.0698520070128e-05
  75    1.0243578401624e-05
  76    1.2104163157737e-05
  77    8.7528949312727e-05
  78    1.5689424293854e-05
  79    -1.2519620957668e-05
  80    -8.6109236141071e-06
  81    3.7943712233097e-06
  82    1.0559780322793e-05
  83    8.9042467605736e-05
  84    3.6036464911517e-05
  85    -1.8062362245329e-05
  86    1.9140076217263e-05
  87    -0.00010582206802015
  88    3.8228090051957e-05
  89    -6.9082964700185e-05
  90    9.3949111676479e-06
  91    1.1009850430907e-05
  92    2.0331278825933e-06
  93    -1.9625974366043e-05
  94    -5.8642040924181e-06
 Sym= A
 Ene=               6
 Spin= Alpha
 Occup=    1.00000
   1    -0.0017210501609861
   2    -0.012284869275556
   3    -0.005534008334623
   4     0.021673288471888
   5     0.039096397072302
   6    -0.0099509987704129
   7     0.024968792087856
   8     0.041397298388569
   9    -0.0098473433853966
  10    0.0041309489490487
  11    -0.023130258373327
  12     -0.03074443748107
  13    -0.016445995809479
  14    -0.0023667868275079
  15    -0.0020849921333925
  16    -0.016049528277341
  17    -0.028112797890578
  18     0.027313211968437
  19    -0.001622852287534
  20    0.0022007870298757
  21     0.022121390971888
  22    -0.0079586727463725
  23    -0.011401928532412
  24     0.001197331734509
  25    -0.00083495661252991
  26    0.00035757957846944
  27    0.00070237952945998
  28    -0.00022262751182844
  29    0.0098763552173206
  30     0.013663759211324
  31    0.0017046708982763
  32    9.7810277028194e-05
  33    -0.00084624106634424
  34    0.00067127225326553
  35    0.0015011539137905
  36    -0.0052637578871087
  37    -0.0043062947807185
  38    -0.00088336299654422
  39    0.0011600460938327
  40    -0.0068218334489351
  41    -0.0028184368332658
  42    0.0014021751509307
  43    0.00022623994221435
  44    0.00023440451941152
  45    3.3818015200108e-05
  46    -5.5740950618843e-05
  47    0.00020986196540447
  48    -0.0011933320601415
  49    -0.0069578033546834
  50    -0.003803922220697
  51     0.010238793571132
  52    0.0030951155648239
  53    0.0031215178372125
  54     0.001329221870296
  55    0.0041625144577371
  56    0.00055829888666824
  57    -0.0001335646755562
  58    0.00091826148212412
  59    0.00020664181138951
  60    0.00087979854463665
  61    -0.0001412115097445
  62    -0.00062887660486385
  63    -0.0040759609593231
  64    -0.00079376183545281
  65      0.41888201263062
  66      0.51076002470915
  67    -0.066188105035964
  68      0.29029021241544
  69       0.3509789996564
  70     -0.04358334028557
  71    -0.0026029003245486
  72    0.0085249753882482
  73     0.011172579669776
  74    0.0045340128708352
  75    0.0029434838332942
  76    -0.0089140223395612
  77    -0.0073070197055398
  78    0.0005450128322969
  79    -0.00068156636847289
  80    -6.143217779372e-05
  81    -0.0012837932163071
  82     0.015318704726982
  83      0.04804770501793
  84    0.0031252533847974
  85      0.03069731419381
  86    -0.023813108564345
  87    0.0025543284792812
  88     0.029025690874926
  89    -0.023678267727326
  90    -0.00035009684649239
  91    -0.00077341357288438
  92    -8.6686684210986e-05
  93    7.118411629365e-05
  94    -0.00024151980793757
 Sym= A
 Ene=               7
 Spin= Alpha
 Occup=    1.00000
   1    -0.0024076466575201
   2    -0.0025772945694324
   3     0.025923480672384
   4     0.010688287025089
   5    -0.0061971083766246
   6    -0.014527514995844
   7     0.040043070401849
   8    0.0073358707038676
   9     -0.03050928473464
  10    -0.010328549829841
  11     0.013472485713597
  12     0.015892661057727
  13    -0.026897448474646
  14    -0.022203558834621
  15    -0.0020549878254887
  16    -0.023016327430009
  17    -0.059658267856247
  18     0.034095283198953
  19    0.0012339480947421
  20    0.0024279102357949
  21     0.038532414681481
  22    -0.015143997205204
  23     0.016412167821697
  24    -0.00038414136555236
  25    -0.00086955950228511
  26    -0.0012425839385218
  27    -0.0014543643079008
  28    -0.0015051969713703
  29    -0.0013813431528928
  30    -0.0015976649616981
  31    0.00044653343140559
  32    0.0012768400744281
  33    8.9884308051333e-05
  34    -0.001251240324034
  35    -0.005662374627492
  36    0.00010358385876103
  37    0.0077166637331068
  38    0.0045548372396867
  39    -0.0044703885458513
  40    -0.0026217411546954
  41    0.0020533198254725
  42    -0.0044490659658206
  43    -0.00034527024750247
  44    -0.00029799590440465
  45    -0.0003965546962693
  46    0.00068625597491271
  47    0.00096859562950577
  48    -0.0007343377455238
  49    0.00095858593156961
  50     0.013281974404476
  51    -0.0062101654951547
  52    -0.0044514684563507
  53    0.0016795264457819
  54    -0.0061277686245619
  55    -0.0058226450889797
  56    0.0025357236919347
  57    0.00020888160686182
  58    0.00022786885692255
  59    -0.00011215435875535
  60    -0.00040550690316928
  61    -0.00059900482736764
  62    0.00094581984965151
  63    -0.0021077298174757
  64    -0.017098270863463
  65    -0.0045682977359126
  66    0.0054479280192167
  67    -0.0050768019661286
  68     -0.00717061998602
  69    0.0030651964931658
  70    -0.0061263946162283
  71    -0.00017296617662479
  72    0.00028105005260349
  73    0.0001606707161024
  74    -0.00068105404134291
  75    -0.00033305475261479
  76     0.041059107856067
  77     0.046644266555877
  78    -0.0022633462785563
  79    -0.0018060405525853
  80    0.0028462803558348
  81    -0.0011512151379193
  82    -0.00020244505054664
  83     0.012529520976073
  84      0.48760516493853
  85     -0.29322853784704
  86     -0.35181140692059
  87      0.33782360196663
  88     -0.19970434606778
  89     -0.24340154571345
  90    0.0035890745665751
  91    -0.0057034927792194
  92    -0.0051639333048314
  93    0.0092180765759053
  94    0.0072775245558034
 Sym= A
 Ene=               8
 Spin= Alpha
 Occup=    1.00000
   1    -0.0017530902767802
   2    -0.0016630707227873
   3     0.016852777307258
   4    0.0093684356727463
   5    -0.017198260417858
   6    -0.0032137122072843
   7     0.034337553114232
   8      -0.0289803560061
   9     0.010453320089809
  10     0.022753035839066
  11    -0.023497493095172
  12     0.024028473416269
  13    -0.0078507369416826
  14    0.0098288766332535
  15    -0.0020227666339512
  16    -0.021040629333654
  17    -0.057844683881836
  18     0.035102804441306
  19    0.0025952374469576
  20    0.0022175740234712
  21     0.031498878694052
  22     0.010173856995535
  23    -0.024274324358282
  24    0.0019219901935215
  25    -0.0011261827106288
  26    -9.9574635649624e-05
  27    -0.000335241156173
  28    -0.0003496663752846
  29     0.010899967096768
  30     0.021861676892441
  31    0.0015465243742119
  32    -0.00015832780634319
  33    -0.00097156498522182