[Molden Format]
made by pyscf v[2.0.1]
[Atoms] (AU)
C   1   6     0.00000000000000     0.00000000000000     0.00000000000000
C   2   6     2.85272299873892     0.00000000000000     0.00000000000000
H   3   1     3.62066923017674     0.00000000000000     1.90331545357504
F   4   9     3.65943188126013    -2.04308229183900    -1.24074875274501
F   5   9     3.65943188126013     2.04308229183900    -1.24074875274501
F   6   9    -0.80670888252121     0.86712147444210     2.22749704090168
H   7   1    -0.76794623143782    -1.87439981510865    -0.33050726003861
F   8   9    -0.80670888252121     1.57667650804493    -1.79658952118831
[GTO]
1 0
 s    8 1.00
                  6665  0.00069158396281299
                  1000  0.0053257961529341
                   228   0.027060721042034
                 64.71    0.10165684614077
                 21.06     0.2745748236174
                 7.495    0.44829431892377
                 2.797    0.28490261071525
                0.5215   0.015194859206082
 s    8 1.00
                  6665  -0.00029326965268655
                  1000  -0.0023180354739745
                   228  -0.011499786038565
                 64.71  -0.046826727009787
                 21.06   -0.12846616875047
                 7.495   -0.30126627246289
                 2.797   -0.25563070233011
                0.5215      1.093793361012
 s    1 1.00
                0.1596                   1
 p    3 1.00
                 9.439   0.056979251590039
                 2.002    0.31320721150073
                0.5456    0.76037674173753
 p    1 1.00
                0.1517                   1
 d    1 1.00
                  0.55                   1

2 0
 s    8 1.00
                  6665  0.00069158396281299
                  1000  0.0053257961529341
                   228   0.027060721042034
                 64.71    0.10165684614077
                 21.06     0.2745748236174
                 7.495    0.44829431892377
                 2.797    0.28490261071525
                0.5215   0.015194859206082
 s    8 1.00
                  6665  -0.00029326965268655
                  1000  -0.0023180354739745
                   228  -0.011499786038565
                 64.71  -0.046826727009787
                 21.06   -0.12846616875047
                 7.495   -0.30126627246289
                 2.797   -0.25563070233011
                0.5215      1.093793361012
 s    1 1.00
                0.1596                   1
 p    3 1.00
                 9.439   0.056979251590039
                 2.002    0.31320721150073
                0.5456    0.76037674173753
 p    1 1.00
                0.1517                   1
 d    1 1.00
                  0.55                   1

3 0
 s    3 1.00
                 13.01   0.033498726389998
                 1.962    0.23480080117413
                0.4446     0.8136829578829
 s    1 1.00
                 0.122                   1
 p    1 1.00
                 0.727                   1

4 0
 s    8 1.00
                 14710  0.00072067370873197
                  2207  0.0055504869689163
                 502.8   0.028254207662589
                 142.6    0.10639582836653
                 46.47    0.28668420124307
                  16.7    0.44843796582416
                 6.356    0.26464118141135
                 1.316   0.015326060993048
 s    8 1.00
                 14710  -0.00032119389049893
                  2207  -0.0025461915683188
                 502.8  -0.012643359507821
                 142.6   -0.05195749170489
                 46.47   -0.14344713812646
                  16.7   -0.33243762329603
                 6.356   -0.21865906750347
                 1.316     1.0955904138622
 s    1 1.00
                0.3897                   1
 p    3 1.00
                 22.67   0.064834021493887
                 4.977    0.34053535983101
                 1.347    0.73464640679382
 p    1 1.00
                0.3471                   1
 d    1 1.00
                  1.64                   1

5 0
 s    8 1.00
                 14710  0.00072067370873197
                  2207  0.0055504869689163
                 502.8   0.028254207662589
                 142.6    0.10639582836653
                 46.47    0.28668420124307
                  16.7    0.44843796582416
                 6.356    0.26464118141135
                 1.316   0.015326060993048
 s    8 1.00
                 14710  -0.00032119389049893
                  2207  -0.0025461915683188
                 502.8  -0.012643359507821
                 142.6   -0.05195749170489
                 46.47   -0.14344713812646
                  16.7   -0.33243762329603
                 6.356   -0.21865906750347
                 1.316     1.0955904138622
 s    1 1.00
                0.3897                   1
 p    3 1.00
                 22.67   0.064834021493887
                 4.977    0.34053535983101
                 1.347    0.73464640679382
 p    1 1.00
                0.3471                   1
 d    1 1.00
                  1.64                   1

6 0
 s    8 1.00
                 14710  0.00072067370873197
                  2207  0.0055504869689163
                 502.8   0.028254207662589
                 142.6    0.10639582836653
                 46.47    0.28668420124307
                  16.7    0.44843796582416
                 6.356    0.26464118141135
                 1.316   0.015326060993048
 s    8 1.00
                 14710  -0.00032119389049893
                  2207  -0.0025461915683188
                 502.8  -0.012643359507821
                 142.6   -0.05195749170489
                 46.47   -0.14344713812646
                  16.7   -0.33243762329603
                 6.356   -0.21865906750347
                 1.316     1.0955904138622
 s    1 1.00
                0.3897                   1
 p    3 1.00
                 22.67   0.064834021493887
                 4.977    0.34053535983101
                 1.347    0.73464640679382
 p    1 1.00
                0.3471                   1
 d    1 1.00
                  1.64                   1

7 0
 s    3 1.00
                 13.01   0.033498726389998
                 1.962    0.23480080117413
                0.4446     0.8136829578829
 s    1 1.00
                 0.122                   1
 p    1 1.00
                 0.727                   1

8 0
 s    8 1.00
                 14710  0.00072067370873197
                  2207  0.0055504869689163
                 502.8   0.028254207662589
                 142.6    0.10639582836653
                 46.47    0.28668420124307
                  16.7    0.44843796582416
                 6.356    0.26464118141135
                 1.316   0.015326060993048
 s    8 1.00
                 14710  -0.00032119389049893
                  2207  -0.0025461915683188
                 502.8  -0.012643359507821
                 142.6   -0.05195749170489
                 46.47   -0.14344713812646
                  16.7   -0.33243762329603
                 6.356   -0.21865906750347
                 1.316     1.0955904138622
 s    1 1.00
                0.3897                   1
 p    3 1.00
                 22.67   0.064834021493887
                 4.977    0.34053535983101
                 1.347    0.73464640679382
 p    1 1.00
                0.3471                   1
 d    1 1.00
                  1.64                   1

[5d]
[7f]
[9g]

[MO]
 Sym= A
 Ene=               0
 Spin= Alpha
 Occup=    1.00000
   1       1.0018744128315
   2    -0.00092355518199835
   3    -0.0097178709048022
   4    -0.00016040618524708
   5    0.0029696742420522
   6    0.00057541909968058
   7    -0.0017037400135935
   8     0.001473174000559
   9    0.00031670530022977
  10    0.00030103329744472
  11    -1.0702734906357e-05
  12    -6.8101727684713e-05
  13    -7.6985578117389e-05
  14    -0.00010727603555016
  15    -0.00021113621389893
  16    -0.00087073861300914
  17    0.0028689180958529
  18    0.0010857891773072
  19    6.697063805052e-05
  20    7.8263991646754e-05
  21    -0.0013189543061589
  22    -0.00012887361732549
  23    -0.00036126506846962
  24    9.1629423325266e-05
  25    -2.2203944688177e-05
  26    8.8740614347381e-06
  27    -0.00019205578386718
  28    2.4736226374395e-05
  29    8.6299761023933e-05
  30    0.00060272895108741
  31    -7.5304412062869e-05
  32    2.427483266882e-06
  33    -5.0294868702578e-05
  34    1.443182573386e-05
  35    0.00013946901154473
  36    -3.9107479129966e-05
  37    -0.00030174762804306
  38    6.2328328918427e-05
  39    6.163470982737e-05
  40    -0.00031687343253211
  41    -3.4666053602415e-06
  42    2.6508567087609e-05
  43    -7.0160596651779e-06
  44    2.8999571980115e-06
  45    1.5498801756166e-05
  46    8.2314548434019e-06
  47    1.6145192343572e-07
  48    -8.8803428091111e-06
  49    1.6421500096044e-05
  50    -0.00010182215433517
  51    -0.00011694079052785
  52    -4.3567754785957e-05
  53    -1.6230769799238e-05
  54    -0.00019962357159533
  55    6.104508789461e-05
  56    -2.6931869351301e-05
  57    -1.2753040757785e-05
  58    -1.9993037404996e-06
  59    -3.0086844824384e-06
  60    2.6156226454011e-05
  61    2.0167947511564e-06
  62    0.00013804483661915
  63    -0.00010424926625849
  64    -0.00068515885328401
  65    -0.00044636877390709
  66    0.00035210413011103
  67    0.0011391761663766
  68    -0.00042379549343897
  69    0.00040884074704366
  70    0.0016727790042413
  71    -0.00020371930664463
  72    0.00013062403132244
  73    -0.00017247747198216
  74    6.1583977087237e-06
  75    4.4081379465863e-05
  76    -0.0030960096584865
  77    0.00084484964151785
  78    5.340064810933e-05
  79    -0.0003287119252893
  80    -7.2797502780641e-05
  81    0.00012754215239666
  82    -0.00012716013932914
  83    -0.00062031001641359
  84    -0.00044432593310362
  85    0.00073079444340342
  86    -0.00095117960778345
  87    -0.00044510979437328
  88    0.00093341201073945
  89    -0.0014346751776438
  90    -7.2630484644065e-05
  91    -0.00010454394566429
  92    0.00023930542899449
  93    7.7510720833274e-05
  94    8.4078125627194e-05
 Sym= A
 Ene=               1
 Spin= Alpha
 Occup=    1.00000
   1    -0.00021110919586863
   2    -0.00087072969215408
   3    0.0028689179920482
   4     -0.00108579526093
   5    -6.5442054174274e-05
   6    -7.9549446004833e-05
   7    0.0013189514514208
   8    0.00033339989908795
   9    0.00018965020897145
  10    0.00012226802052867
  11    2.0504378977011e-05
  12    2.6345035739609e-06
  13    -0.00017436781567159
  14    -2.6161873694416e-05
  15       1.0018744123964
  16    -0.00092356837919056
  17    -0.0097178757565114
  18    0.00016040099652271
  19    -5.0973407145002e-05
  20    -0.0030244917073708
  21    0.0017037380437298
  22    -5.6079369116096e-05
  23    -0.0015057947622815
  24    -9.2410024024297e-05
  25    -0.0001075051741041
  26    1.1998535415709e-05
  27    -0.00030413992107128
  28    8.0871134729278e-06
  29    -0.0030960239577144
  30    0.00084484868166438
  31    -5.3399875779266e-05
  32    1.4612373771229e-05
  33    0.0003363607061768
  34    0.00013804561153169
  35    -0.00010426126208301
  36    -0.00068517000083866
  37    0.00044641299398456
  38    -0.0010607425461893
  39    -0.00054457621252361
  40    0.0004238258486175
  41    -0.001576380690785
  42    -0.00069310658603838
  43    3.6385427646977e-05
  44    6.6095073174406e-05
  45    -0.00022136479630446
  46    0.00014478289870892
  47    0.00012098595017316
  48    0.0001275420579984
  49    -0.00012714056968801
  50    -0.00062029056321035
  51    0.00044427843067908
  52    0.0010636053656746
  53    -0.00055455445989771
  54    0.0004450775870257
  55    0.0015749487208221
  56    -0.0006701254533344
  57    3.8808849706525e-05
  58    6.4646445958454e-05
  59    0.00021661577316797
  60    0.00014185069965687
  61    -0.0001175544590727
  62    1.443190607605e-05
  63    0.00013947218885622
  64    -3.9105211050258e-05
  65    0.00030174466777987
  66    -4.9879863907317e-05
  67    -7.208232719919e-05
  68    0.00031687198483502
  69    -2.6711331965408e-05
  70    -1.1871930244681e-06
  71    8.6783129781397e-07
  72    6.6262180879301e-07
  73    1.3893760639052e-05
  74    1.2783043115325e-05
  75    2.827869215805e-06
  76    8.630558600987e-05
  77    0.00060273080667522
  78    7.5304060523954e-05
  79    4.9952946135008e-05
  80    6.3429798738202e-06
  81    -8.8807458856556e-06
  82    1.6421327834212e-05
  83    -0.00010182377108412
  84    0.00011694859055605
  85    8.4198662430036e-06
  86    4.5742590597033e-05
  87    0.00019962905871726
  88    3.7124379772677e-05
  89    -5.5429464278704e-05
  90    -1.7060143333955e-05
  91    1.6393458647354e-06
  92    -2.1321961548161e-06
  93    2.3669500888856e-05
  94    -2.3193029418711e-06
 Sym= A
 Ene=               2
 Spin= Alpha
 Occup=    1.00000
   1    -4.6378108396718e-05
   2    4.0740612988397e-05
   3    0.0038902287693925
   4    -0.00024760418774819
   5    0.00018182289241747
   6    0.00049784468089443
   7    0.00033423307237826
   8    0.00082177728033148
   9    0.0012264901875562
  10    -4.7243510074995e-05
  11    3.5816045596107e-05
  12    -5.5846761228539e-05
  13    1.1354004373488e-05
  14    2.3919689046841e-06
  15    9.1992715833197e-05
  16    0.0001415656238096
  17    -0.0017137990742773
  18    0.00014317161259377
  19    1.8200206169526e-05
  20    5.0601606463115e-05
  21    0.00080897220653598
  22    -0.00019742497476237
  23    -0.00019175969036918
  24    0.00011191555123527
  25    4.3999111854957e-05
  26    3.7612637210027e-05
  27    -3.1731026160046e-05
  28    1.5347256757403e-05
  29    6.2595247757021e-05
  30    -4.5462092781524e-05
  31    4.5391484898339e-05
  32    4.6396157865171e-06
  33    1.3221468178764e-05
  34    -2.6350011075457e-05
  35    -4.3548473863419e-05
  36    0.00016602676417761
  37    1.7837663185546e-05
  38    7.6845486714945e-06
  39    5.4904075612066e-06
  40    -0.00016050007394906
  41    4.0458318539303e-05
  42    2.7552889441869e-05
  43    8.4246389083747e-06
  44    -9.7237863568437e-07
  45    8.5136401838915e-06
  46    2.2229672835383e-06
  47    1.0083897033482e-06
  48    -9.0552435697854e-07
  49    4.4912782903692e-06
  50    0.00013894293331152
  51    -2.9890175296723e-05
  52    -4.8160034556893e-06
  53    7.1678030813228e-06
  54    1.2565074109154e-05
  55    -5.016385118237e-05
  56    2.4433808470253e-05
  57    1.2402495672491e-05
  58    4.7287559840555e-06
  59    -6.9214684139869e-06
  60    -1.0414653802175e-05
  61    3.9302136830038e-06
  62       1.0010165236101
  63    -0.0041089938881827
  64    -0.011259771912045
  65    0.0011159190006118
  66    -0.0010686812351742
  67    -0.0026602937991617
  68    -5.5783941286887e-07
  69    -4.5265087367978e-05
  70    0.00010207371987328
  71    -0.00010997339215551
  72    7.4345690600263e-05
  73    -7.3425974757401e-05
  74    1.2016406257236e-05
  75    3.2474702928959e-05
  76    -0.00023284873323552
  77    -0.00015058287728256
  78    -2.4026054287221e-06
  79    -9.8742928807403e-05
  80    -0.00014906639996562
  81    0.0001059740997855
  82    0.00019769805638405
  83    -0.00076044713829689
  84    -8.4151063419513e-06
  85    4.5547749349485e-05
  86    2.0766567147554e-05
  87    -5.2601377262131e-05
  88    -4.0387559196662e-05
  89    -0.00041244444801169
  90    -2.6783987312033e-05
  91    -1.4941690793293e-05
  92    1.4264803065497e-05
  93    -5.396039229198e-06
  94    -9.8178807116832e-06
 Sym= A
 Ene=               3
 Spin= Alpha
 Occup=    1.00000
   1    9.1992097369771e-05
   2    0.00014157141105255
   3    -0.0017137528073125
   4    -0.00014316518959547
   5    -4.6671725549301e-05
   6    -2.6702531501743e-05
   7    -0.00080895272123806
   8    0.0001545690925244
   9    0.00022773043413161
  10    -1.3102765751592e-05
  11    2.2753754885794e-05
  12    6.3066604431076e-05
  13    -0.00010390910842176
  14    4.0665203898935e-05
  15    -4.6388113858277e-05
  16    4.0744283915251e-05
  17    0.0038901944650768
  18    0.00024762794575216
  19    -0.00045872523761621
  20    -0.00026553690029182
  21    -0.00033420239186693
  22    -0.001065143164846
  23    -0.0010222981434634
  24    -4.5870608103768e-06
  25    8.5568343495467e-06
  26    -6.4503349092726e-05
  27    3.5983420335893e-05
  28    3.4834766249015e-05
  29    -0.00023284650025185
  30    -0.00015056577580132
  31    2.4010717810392e-06
  32    0.00012965467266403
  33    0.00012312616463349
  34       1.0010165337167
  35    -0.0041082619240775
  36    -0.011258946356469
  37    -0.0011156024259947
  38    0.0024344078681255
  39    0.0015140974244469
  40    7.7758516560556e-07
  41    -0.0001083195589801
  42    2.6639415256176e-05
  43    1.8166715851643e-05
  44    4.4896113149228e-05
  45    -9.9517477435744e-05
  46    8.5994203091984e-05
  47    6.7579344704771e-05
  48    0.00010597468484143
  49    0.00019767966813526
  50    -0.00076047603583371
  51    8.4334701252912e-06
  52    -1.2484318191253e-05
  53    -4.845537092829e-05
  54    5.2611690811799e-05
  55    0.00039920848238047
  56    0.00011140120715375
  57    2.0938484818854e-05
  58    -1.2263540542648e-05
  59    4.5489852685056e-06
  60    2.215640684786e-05
  61    -1.301076866701e-05
  62    -2.6345853158731e-05
  63    -4.3544684212435e-05
  64    0.00016602443683665
  65    -1.7836450400708e-05
  66    -4.0743164939054e-06
  67    -8.5263238827231e-06
  68    0.0001605010679096
  69    -2.0109622785396e-05
  70    -4.4628741145733e-05
  71    -3.1766005845264e-06
  72    8.2363696909082e-07
  73    1.0875915670721e-05
  74    -4.474729540189e-06
  75    -1.1328494211472e-06
  76    6.2598487850048e-05
  77    -4.5459827385177e-05
  78    -4.5392817537269e-05
  79    -1.2213078165281e-05
  80    -6.8651332329887e-06
  81    -9.0480201894585e-07
  82    4.4898988849718e-06
  83    0.00013893362155191
  84    2.9883882617302e-05
  85    -7.8929979579412e-06
  86    3.4916885217919e-06
  87    -1.2572776866128e-05
  88    -3.277163977754e-05
  89    4.5151960167709e-05
  90    1.0569072149102e-06
  91    4.6915639093145e-06
  92    -4.6112047591851e-06
  93    -1.6964988361061e-05
  94    3.9746442565437e-06
 Sym= A
 Ene=               4
 Spin= Alpha
 Occup=    1.00000
   1    7.805709047624e-05
   2    0.00010705436529079
   3    -0.0017355862625998
   4    -0.00013799457649379
   5    3.9979892781835e-06
   6    2.6060006962091e-06
   7    -0.00073155299864416
   8    -0.00042212468887263
   9    0.00029898607268348
  10    1.3654221156603e-06
  11    3.926335071168e-05
  12    -5.7594580879819e-05
  13    -7.8401997689515e-05
  14    -8.4969650887339e-06
  15    -5.101241244529e-05
  16    2.6852867594596e-05
  17    0.0038592187163245
  18    0.00025762397478941
  19    0.00044439810134569
  20    -0.00026937499646619
  21    -0.00032358686798571
  22    0.0011490440706179
  23    -0.0010005919300825
  24    7.2157319127245e-06
  25    2.2918432726093e-05
  26    6.4221506459319e-05
  27    4.4928442876176e-05
  28    -3.9677621434095e-05
  29    -0.00025107180976729
  30    -0.00014059028219731
  31     6.57734113293e-06
  32    -0.00013680082668711
  33    0.00012522151669252
  34    0.00010335316473301
  35    0.00019077209593042
  36    -0.00073460178283364
  37    3.8663894396285e-06
  38    6.2781775351313e-06
  39    -4.6201941633392e-05
  40    7.2265155406969e-05
  41    -0.0003927357453695
  42    0.00010941895373361
  43    2.1739164574939e-05
  44    -1.15614497512e-05
  45    -4.465231014276e-06
  46    2.0325310539754e-05
  47    1.3490331810048e-05
  48       1.0010110850218
  49    -0.0040197660388868
  50    -0.011125655480676
  51    -0.0010989864528859
  52    -0.0024428293742831
  53    0.0014168043292756
  54    -3.4203343655864e-05
  55    0.00013034972311413
  56    -7.5625538575706e-05
  57    1.3682394188617e-05
  58    5.0090800019447e-05
  59    0.00010180363196601
  60    8.6425982823158e-05
  61    -7.065004992679e-05
  62    -2.5116214100874e-06
  63    2.8771619543489e-06
  64    0.00012782945616447
  65    2.0914517135212e-05
  66    -8.6879468216297e-06
  67    -1.0912196417119e-05
  68    2.387981512097e-05
  69    2.1211627009523e-05
  70    -6.6208444256942e-05
  71    1.6255707606399e-05
  72    7.6892612347386e-07
  73    -2.1454267972461e-06
  74    -4.9410614281815e-06
  75    -5.1318374505863e-06
  76    6.3067092722154e-05
  77    -2.6634092529252e-05
  78    2.5640629880084e-05
  79    2.3971188809674e-05
  80    -5.5970162494943e-05
  81    -4.9591287679187e-05
  82    -9.3060557966811e-05
  83    0.00034234161487253
  84    4.753533599981e-06
  85    2.0203233322478e-05
  86    -3.8321367928393e-05
  87    1.3839348407822e-05
  88    -2.5517606285601e-05
  89    9.8690607134169e-05
  90    5.5872574681344e-06
  91    -1.6715854673282e-06
  92    7.8116628482608e-06
  93    -1.8311143944673e-05
  94    1.3755481077475e-06
 Sym= A
 Ene=               5
 Spin= Alpha
 Occup=    1.00000
   1    -5.0962122954988e-05
   2    2.7086693942229e-05
   3    0.0038593263872511
   4    -0.0002577329595707
   5    0.0003426723626436
   6    -0.00039112425628893
   7    0.0003236191096781
   8    0.0011848861627844
   9    -0.00095785668049198
  10    -2.2004746361017e-05
  11    -3.510559535008e-05
  12    7.0167693907145e-05
  13    2.8055876795719e-05
  14    2.9472657917067e-05
  15    7.806350966485e-05
  16    0.00010705477936227
  17    -0.0017357005427588
  18    0.0001380315139592
  19    -1.8518295520292e-06
  20    -4.4042846812958e-06
  21    0.00073161207552936
  22    -0.00036771166410445
  23    0.00036379660271215
  24    4.8174347824083e-05
  25    -1.5355645350798e-06
  26    -6.7124762290338e-05
  27    -5.1377130301644e-05
  28    4.0126268527057e-05
  29    6.3084649508702e-05
  30    -2.6611038950593e-05
  31    -2.5636929602728e-05
  32    5.9281631894172e-05
  33    -1.3885685263815e-05
  34    -2.5139328478759e-06
  35    2.8761712069756e-06
  36    0.0001278585621423
  37    -2.0920563079362e-05
  38    9.2395863100752e-06
  39    1.0457188635972e-05
  40    -2.3893108758847e-05
  41    6.8890919312686e-05
  42    -9.3848025225681e-06
  43    -3.877888615352e-06
  44    -4.9195458001167e-06
  45    1.9539538149049e-06
  46    -1.6565945060509e-05
  47    1.6486769715204e-06
  48    -4.958264581422e-05
  49    -9.3055021592869e-05
  50    0.00034234044330334
  51    -4.7727437794823e-06
  52    4.1254755058866e-05
  53    -1.3260356888957e-05
  54    -1.3849494373287e-05
  55    -0.00010162643063895
  56    7.9858172721459e-06
  57    1.5152613069476e-05
  58    1.0635481121069e-06
  59    5.8636608461631e-06
  60    -1.2789517264656e-05
  61    -1.8844468594242e-06
  62    0.0001033525042576
  63    0.0001907619507393
  64    -0.00073460748449802
  65    -3.8702483058412e-06
  66    4.6590950873609e-05
  67    1.8800010173257e-06
  68    -7.2268114254601e-05
  69    -0.0001759557898596
  70    0.00036780142565416
  71    -2.8276384028555e-05
  72    1.127835496958e-05
  73    5.7170122987471e-06
  74    -8.5529165986987e-06
  75    -1.3726224045238e-05
  76    -0.00025107018128208
  77    -0.00014066085893787
  78    -6.5880536210267e-06
  79    -0.00014707027746667
  80    0.00011296639138449
  81       1.0010110425682
  82    -0.0040222405702844
  83    -0.011128527665447
  84    0.0010996438618345
  85    -0.0018202104113653
  86    0.0021606763882191
  87    3.4652653129968e-05
  88    9.6617687801126e-05
  89    -0.00011456690184306
  90    -4.8651065133842e-05
  91    -6.0863264123187e-05
  92    0.00011447405766341
  93    5.0428303708329e-05
  94     6.15852933475e-05
 Sym= A
 Ene=               6
 Spin= Alpha
 Occup=    1.00000
   1    0.00052669653944522
   2     0.020306278249314
   3     0.076493047792689
   4      0.03809843536252
   5    0.0033991843996824
   6    -0.002664304308867
   7     0.049626972734148
   8     -0.01475174070359
   9    0.0021086753657374
  10    0.00020881608583341
  11    -0.0019052560559734
  12    0.00068838679089032
  13    0.00055390633172049
  14    0.0019212856442688
  15    0.0030466154786834
  16    0.0041128690835961
  17    -0.037357721108044
  18     0.014600942631635
  19     0.005293087197351
  20      0.01177029517461
  21     0.048313522745128
  22     0.022757329814921
  23     0.012607111839776
  24    -0.024785714771867
  25    -0.0096158726869668
  26     0.018242126293525
  27    0.0087244513605787
  28     0.026608303674297
  29    -0.039449246246854
  30    -0.045398060405217
  31    -0.0022670968271928
  32    -0.0030704600299243
  33    -0.00054396142372235
  34    -0.00099289836676447
  35    0.00065361977813566
  36     0.014327999943354
  37    -0.0044601965368149
  38    0.0041847146416242
  39    -0.001730483157297
  40    -0.0085262665495865
  41    0.0038136359730544
  42     0.001039473357126
  43    -0.000467692696469
  44    -0.00013560854845862
  45    0.0004628520223528
  46    0.00025898499685587
  47     0.000458740001607
  48    0.00094770808662392
  49    -0.010401835636176
  50    -0.022631139351857
  51      0.51952017855896
  52     0.044080302641111
  53      0.41992771831242
  54      0.35834155311856
  55     0.033045695903916
  56       0.2880184557856
  57    0.0077321521118984
  58    0.0026043789806519
  59    -0.0067688887820633
  60    -0.0027033983943506
  61    -0.0095863915670394
  62    8.7169902306864e-06
  63    -0.00043730154708163
  64    -0.0015037337576843
  65    -0.0038913561177108
  66    0.00016000850657355
  67    0.0023708439561806
  68    -0.0082804883092491
  69     0.003029813309404
  70    0.0017431258607262
  71    -0.00010860504379571
  72    -0.00048872779313993
  73    -0.00024789502020389
  74    0.00020155747190096
  75    -0.00012774116046765
  76    -0.0094139572193523
  77    -0.011650531232441
  78    0.0022746473409044
  79    -0.0005617691211195
  80    -0.00085329913910919
  81    0.0011721603859981
  82    0.0083858144127781
  83    0.0069668873670531
  84     0.012371899488165
  85    0.0020785687605361
  86    -0.0015573597059543
  87    0.00015096495048286
  88    0.00037941544333337
  89     0.002832981091822
  90    0.0010029206235749
  91    0.00070928175625122
  92    -0.00030780983238585
  93    -0.0013248821034289
  94    -0.0010183877288337
 Sym= A
 Ene=               7
 Spin= Alpha
 Occup=    1.00000
   1    -0.003046853840372
   2    -0.0041187207664285
   3     0.037354486241193
   4     0.014606167556556
   5     0.010663893883173
   6    0.0072560034777399
   7     0.048316381481163
   8    0.0084593814512035
   9     0.024594119048471
  10    -0.0093415244144064
  11    -0.024536500331772
  12    -0.011291164216124
  13    -0.028430044579606
  14     0.014093738892067
  15    -0.00052721927717335
  16    -0.020308465247365
  17    -0.076494515836967
  18     0.038102119011422
  19    -0.0032140486727169
  20    0.0028850749266231
  21     0.049628193908272
  22    0.0046396149811007
  23    -0.014162644904715
  24    0.00035651617670985
  25    -0.0015614029923529
  26    -0.00080371124872847
  27    -0.00022771142683461
  28    0.0022103711933987
  29    0.0094154609483816
  30     0.011652840906844
  31    0.0022747053457896
  32    -0.00074280549018973
  33    -0.00070162551490176
  34    -8.6206784766935e-06
  35    0.00043732744470012
  36    0.0015030550288646
  37    -0.0038912433481115
  38    0.0023064758181983
  39    0.0005696312613817
  40    -0.0082800856507082
  41    0.0011899732584109
  42    0.0032867900399682
  43    0.00019336275647854
  44    0.00021073135277436
  45    0.00023065592473682
  46    -0.00015266760048739
  47    0.00045917117476442
  48    -0.0011720910915464
  49    -0.0083861617751126
  50    -0.0069686594814749
  51     0.012371626282738
  52    -0.0018953214448587
  53    0.0017756635025113
  54    0.0001506684958247
  55    0.0027239606977656
  56    0.00086438319779577
  57    -0.00056554581163999
  58    0.00087990460837029
  59    0.00021880210017166
  60    0.0015775055843792
  61    -0.00087533668951657
  62    0.00099261069934879
  63    -0.00065081875311538
  64     -0.01431938710157
  65    -0.0044595106920756
  66    -0.002431069995641
  67    0.0038123473859196
  68    -0.0085256655506192
  69    0.0003615323619487
  70    0.0039284890129221
  71    -0.00013231733773485
  72    -0.00042827895478502
  73    -0.00034059525064327
  74    -0.00060533054119012
  75    0.00021329312548171
  76     0.039447718310321
  77     0.045396520117281
  78    -0.0022668977162556
  79    -2.6149002768797e-06
  80    -0.0031179398637717
  81    -0.00094791665028844
  82     0.010398336061134
  83     0.022629044462866
  84      0.51957575007354
  85      0.40584705316975
  86      0.11624651662318
  87      0.35838024582271
  88      0.27787178166481
  89     0.082500659738456
  90    0.0032484345581611
  91    0.0089886370203545
  92    0.0045333997726534
  93    0.0090441013118111
  94    -0.0042306102801838
 Sym= A
 Ene=               8
 Spin= Alpha
 Occup=    1.00000
   1    0.0014628148727102
   2     0.022983007874456
   3     0.052369391541825
   4     0.024145080222815
   5    -0.0069559550752832
   6    -0.00077992192842996
   7    -0.0011449237859319
   8    -0.010094190516599
   9    0.0060354876153314
  10    4.1779039600069e-05
  11    -0.0011070880881424
  12    -0.00068038529166485
  13    -6.3071722838809e-05
  14    6.2085732430609e-05
  15    0.0021322242567111
  16     0.013583178840249
  17     0.018182182268987
  18     0.020534867993141
  19      0.02992126146365
  20    -0.021429922154234
  21     0.020985411403023
  22     0.035191593614855
  23    -0.023573308573422
  24     0.014428555509761
  25    -0.016932819572393
  26    0.0078820718397524
  27     0.028992676168719
  28    -0.017535554924326
  29    0.0063222407614265
  30    0.0028219093950226
  31    0.00032921076694841
  32    -0.00059680285370565
  33    0.00040009378850934
  34    0.0010578355735468