[Molden Format]
made by pyscf v[2.0.1]
[Atoms] (AU)
C   1   6     0.00000000000000     0.00000000000000     0.00000000000000
C   2   6     2.85272299873892     0.00000000000000     0.00000000000000
H   3   1     3.62066923017674     0.00000000000000     1.90331545357504
F   4   9     3.65943188126013    -2.04308229183900    -1.24074875274501
F   5   9     3.65943188126013     2.04308229183900    -1.24074875274501
F   6   9    -0.80670888252121    -1.57667650804493    -1.79658952118831
H   7   1    -0.76794623143782     1.87439981510865    -0.33050726003861
F   8   9    -0.80670888252121    -0.86712147444210     2.22749704090168
[GTO]
1 0
 s    8 1.00
                  6665  0.00069158396281299
                  1000  0.0053257961529341
                   228   0.027060721042034
                 64.71    0.10165684614077
                 21.06     0.2745748236174
                 7.495    0.44829431892377
                 2.797    0.28490261071525
                0.5215   0.015194859206082
 s    8 1.00
                  6665  -0.00029326965268655
                  1000  -0.0023180354739745
                   228  -0.011499786038565
                 64.71  -0.046826727009787
                 21.06   -0.12846616875047
                 7.495   -0.30126627246289
                 2.797   -0.25563070233011
                0.5215      1.093793361012
 s    1 1.00
                0.1596                   1
 p    3 1.00
                 9.439   0.056979251590039
                 2.002    0.31320721150073
                0.5456    0.76037674173753
 p    1 1.00
                0.1517                   1
 d    1 1.00
                  0.55                   1

2 0
 s    8 1.00
                  6665  0.00069158396281299
                  1000  0.0053257961529341
                   228   0.027060721042034
                 64.71    0.10165684614077
                 21.06     0.2745748236174
                 7.495    0.44829431892377
                 2.797    0.28490261071525
                0.5215   0.015194859206082
 s    8 1.00
                  6665  -0.00029326965268655
                  1000  -0.0023180354739745
                   228  -0.011499786038565
                 64.71  -0.046826727009787
                 21.06   -0.12846616875047
                 7.495   -0.30126627246289
                 2.797   -0.25563070233011
                0.5215      1.093793361012
 s    1 1.00
                0.1596                   1
 p    3 1.00
                 9.439   0.056979251590039
                 2.002    0.31320721150073
                0.5456    0.76037674173753
 p    1 1.00
                0.1517                   1
 d    1 1.00
                  0.55                   1

3 0
 s    3 1.00
                 13.01   0.033498726389998
                 1.962    0.23480080117413
                0.4446     0.8136829578829
 s    1 1.00
                 0.122                   1
 p    1 1.00
                 0.727                   1

4 0
 s    8 1.00
                 14710  0.00072067370873197
                  2207  0.0055504869689163
                 502.8   0.028254207662589
                 142.6    0.10639582836653
                 46.47    0.28668420124307
                  16.7    0.44843796582416
                 6.356    0.26464118141135
                 1.316   0.015326060993048
 s    8 1.00
                 14710  -0.00032119389049893
                  2207  -0.0025461915683188
                 502.8  -0.012643359507821
                 142.6   -0.05195749170489
                 46.47   -0.14344713812646
                  16.7   -0.33243762329603
                 6.356   -0.21865906750347
                 1.316     1.0955904138622
 s    1 1.00
                0.3897                   1
 p    3 1.00
                 22.67   0.064834021493887
                 4.977    0.34053535983101
                 1.347    0.73464640679382
 p    1 1.00
                0.3471                   1
 d    1 1.00
                  1.64                   1

5 0
 s    8 1.00
                 14710  0.00072067370873197
                  2207  0.0055504869689163
                 502.8   0.028254207662589
                 142.6    0.10639582836653
                 46.47    0.28668420124307
                  16.7    0.44843796582416
                 6.356    0.26464118141135
                 1.316   0.015326060993048
 s    8 1.00
                 14710  -0.00032119389049893
                  2207  -0.0025461915683188
                 502.8  -0.012643359507821
                 142.6   -0.05195749170489
                 46.47   -0.14344713812646
                  16.7   -0.33243762329603
                 6.356   -0.21865906750347
                 1.316     1.0955904138622
 s    1 1.00
                0.3897                   1
 p    3 1.00
                 22.67   0.064834021493887
                 4.977    0.34053535983101
                 1.347    0.73464640679382
 p    1 1.00
                0.3471                   1
 d    1 1.00
                  1.64                   1

6 0
 s    8 1.00
                 14710  0.00072067370873197
                  2207  0.0055504869689163
                 502.8   0.028254207662589
                 142.6    0.10639582836653
                 46.47    0.28668420124307
                  16.7    0.44843796582416
                 6.356    0.26464118141135
                 1.316   0.015326060993048
 s    8 1.00
                 14710  -0.00032119389049893
                  2207  -0.0025461915683188
                 502.8  -0.012643359507821
                 142.6   -0.05195749170489
                 46.47   -0.14344713812646
                  16.7   -0.33243762329603
                 6.356   -0.21865906750347
                 1.316     1.0955904138622
 s    1 1.00
                0.3897                   1
 p    3 1.00
                 22.67   0.064834021493887
                 4.977    0.34053535983101
                 1.347    0.73464640679382
 p    1 1.00
                0.3471                   1
 d    1 1.00
                  1.64                   1

7 0
 s    3 1.00
                 13.01   0.033498726389998
                 1.962    0.23480080117413
                0.4446     0.8136829578829
 s    1 1.00
                 0.122                   1
 p    1 1.00
                 0.727                   1

8 0
 s    8 1.00
                 14710  0.00072067370873197
                  2207  0.0055504869689163
                 502.8   0.028254207662589
                 142.6    0.10639582836653
                 46.47    0.28668420124307
                  16.7    0.44843796582416
                 6.356    0.26464118141135
                 1.316   0.015326060993048
 s    8 1.00
                 14710  -0.00032119389049893
                  2207  -0.0025461915683188
                 502.8  -0.012643359507821
                 142.6   -0.05195749170489
                 46.47   -0.14344713812646
                  16.7   -0.33243762329603
                 6.356   -0.21865906750347
                 1.316     1.0955904138622
 s    1 1.00
                0.3897                   1
 p    3 1.00
                 22.67   0.064834021493887
                 4.977    0.34053535983101
                 1.347    0.73464640679382
 p    1 1.00
                0.3471                   1
 d    1 1.00
                  1.64                   1

[5d]
[7f]
[9g]

[MO]
 Sym= A
 Ene=               0
 Spin= Alpha
 Occup=    1.00000
   1       1.0018744087619
   2    -0.00092363865452394
   3    -0.0097178863029562
   4    -0.00016040535198629
   5    -0.0029696345375595
   6    0.00057541607238708
   7    -0.0017037441038135
   8    -0.0014731765004025
   9    0.00031670685261861
  10    0.00030102713503965
  11    -1.070040205094e-05
  12    6.8099574705843e-05
  13    -7.6986008907044e-05
  14    0.00010727305929514
  15    -0.00021113518809833
  16    -0.00087074603097319
  17    0.0028689076844983
  18    0.0010858193349965
  19    -6.6961804391423e-05
  20    7.8277147566056e-05
  21    -0.0013189469332715
  22    0.00012887752673111
  23    -0.00036126184751582
  24    9.1632785899996e-05
  25    -2.2202978859104e-05
  26    -8.8745006497065e-06
  27    -0.00019206044600625
  28    -2.4737107530406e-05
  29    8.6317084733206e-05
  30    0.0006027394646012
  31    -7.5304647418859e-05
  32    -2.4274939146032e-06
  33    -5.0296004756858e-05
  34    -8.8810512135195e-06
  35    1.6424698831669e-05
  36    -0.00010181437111457
  37    -0.00011695219171936
  38    4.356269173838e-05
  39    -1.6242056179164e-05
  40    -0.00019963353648495
  41    -6.1047948820626e-05
  42    -2.6939919270929e-05
  43    -1.2752924353763e-05
  44    -1.9991280556229e-06
  45    3.0084645955066e-06
  46    2.6156244805679e-05
  47    -2.0165543103751e-06
  48    1.4430895083655e-05
  49    0.00013947421118296
  50    -3.9101718076954e-05
  51    -0.00030176035769198
  52    -6.2326904697317e-05
  53    6.1640590177078e-05
  54    -0.00031688352628698
  55    3.4672609765176e-06
  56    2.6511831722099e-05
  57    -7.0157898862379e-06
  58    2.8998070723802e-06
  59    -1.5499176784344e-05
  60    8.2314331847512e-06
  61    -1.6147431061966e-07
  62    0.00012754468278146
  63    -0.00012715624124148
  64    -0.00062029911542243
  65    -0.00044436553981172
  66    -0.00073085263252387
  67    -0.00095121861660372
  68    -0.00044513449866055
  69    -0.00093344995740628
  70    -0.0014346989060373
  71    -7.2631414553272e-05
  72    -0.00010454579853523
  73    -0.00023930839434553
  74    7.7511514009581e-05
  75    -8.4079805987684e-05
  76    -0.0030960151427202
  77    0.00084486108806762
  78    5.3400390475441e-05
  79    0.00032871506206775
  80    -7.2797955349936e-05
  81    0.00013804728864502
  82    -0.00010424721066688
  83    -0.00068515182672742
  84    -0.00044637723534275
  85    -0.00035213741276772
  86    0.0011392454197962
  87    -0.00042379920889274
  88    -0.00040886271562499
  89    0.0016728232828278
  90    -0.00020372216013813
  91    0.00013062583429983
  92    0.0001724793020734
  93    6.1584038371276e-06
  94    -4.408190906643e-05
 Sym= A
 Ene=               1
 Spin= Alpha
 Occup=    1.00000
   1    -0.00021111103200861
   2    -0.0008707375867005
   3    0.0028689082530309
   4    -0.0010858232639239
   5    6.5456406404432e-05
   6    -7.9541957245487e-05
   7    0.0013189450855043
   8    -0.00033339585823336
   9    0.00018965359561713
  10    0.00012227045656212
  11    2.0505511426308e-05
  12    -2.6352197424167e-06
  13    -0.00017437279733485
  14    2.6161038750939e-05
  15       1.0018744084328
  16    -0.00092364797742342
  17    -0.0097178888831377
  18    0.00016040120830123
  19    5.0980044113315e-05
  20    -0.0030244461939749
  21    0.0017037429437091
  22    5.6080232654855e-05
  23    -0.0015057956543204
  24    -9.2406465787167e-05
  25    -0.00010750172900095
  26    -1.1999649162781e-05
  27    -0.00030413433805377
  28    -8.0891854510724e-06
  29    -0.003096023730641
  30    0.00084486091024031
  31    -5.3399907103066e-05
  32    -1.4612116355515e-05
  33    0.00033636337557474
  34    0.00012754461249948
  35    -0.00012713966433982
  36    -0.00062028301658862
  37    0.00044432872452382
  38    -0.0010636586105345
  39    -0.00055459723115794
  40    0.0004451095686958
  41    -0.0015749818089337
  42    -0.00067015354537374
  43    3.8809724690801e-05
  44    6.4647855522124e-05
  45    -0.00021661832687837
  46    0.00014185242289542
  47    0.00011755684504808
  48    0.00013804797936605
  49    -0.00010425811055198
  50    -0.00068516203206819
  51    0.00044641830335295
  52    0.0010608032957023
  53    -0.00054462149781327
  54    0.00042382734467176
  55    0.0015764194108515
  56    -0.00069313660327551
  57    3.6386200461744e-05
  58    6.609584540909e-05
  59    0.00022136724616157
  60    0.00014478498045223
  61    -0.00012098757156869
  62    -8.8814053945518e-06
  63    1.6424573122197e-05
  64    -0.00010181572046981
  65    0.00011696122213447
  66    -8.4334458456623e-06
  67    4.5738074321972e-05
  68    0.00019963976015904
  69    -3.7133789939086e-05
  70    -5.5431787540958e-05
  71    -1.7060144438569e-05
  72    1.639149682504e-06
  73    2.1318720487153e-06
  74    2.3669470127775e-05
  75    2.3190979452599e-06
  76    8.6321798108162e-05
  77    0.00060274093622193
  78    7.5304328674711e-05
  79    -4.9953963830189e-05
  80    6.3431466829308e-06
  81    1.4430960615117e-05
  82    0.00013947689866755
  83    -3.9100035626085e-05
  84    0.00030175745522002
  85    4.9885298711906e-05
  86    -7.2082283030639e-05
  87    0.00031688189748588
  88    2.6714203740124e-05
  89    -1.1874423396093e-06
  90    8.6782594099884e-07
  91    6.6259114611746e-07
  92    -1.3894170425188e-05
  93    1.2782897268231e-05
  94    -2.8277105179239e-06
 Sym= A
 Ene=               2
 Spin= Alpha
 Occup=    1.00000
   1    9.1993458575136e-05
   2    0.00014157011401193
   3    -0.0017137658427936
   4    -0.00014317320169394
   5    4.6680679801259e-05
   6    -2.6709081058316e-05
   7    -0.00080898244209438
   8    -0.00015454870543413
   9    0.00022772139848643
  10    -1.3102523911629e-05
  11    2.2750410751402e-05
  12    -6.3067221226588e-05
  13    -0.00010391000014696
  14    -4.0660582840089e-05
  15    -4.6370725925087e-05
  16    4.083338424969e-05
  17    0.0038902372833676
  18    0.0002476698448106
  19    0.00045882730935031
  20    -0.00026559428228132
  21    -0.00033421522545924
  22    0.0010651468889907
  23    -0.0010222764637952
  24    -4.590509277017e-06
  25    8.5616336142413e-06
  26    6.4508327204785e-05
  27    3.5982552271941e-05
  28    -3.4835674230465e-05
  29    -0.00023285259464488
  30    -0.000150600508695
  31    2.4044956956425e-06
  32    -0.00012965079411709
  33    0.00012312508281405
  34    0.00010597315295527
  35    0.00019768336689842
  36    -0.00076046637606669
  37    8.4165741410782e-06
  38    1.2481352392486e-05
  39    -4.8454279111162e-05
  40    5.2598611664538e-05
  41    -0.00039921131012402
  42    0.00011140132457984
  43    2.0937216239257e-05
  44    -1.2262976683814e-05
  45    -4.5487175773962e-06
  46    2.2155172927189e-05
  47    1.3010435217892e-05
  48       1.0010165176234
  49    -0.0041091975240352
  50    -0.011260030397833
  51    -0.0011157799821574
  52    -0.0024347612534285
  53    0.0015144402735959
  54    6.5895996216089e-07
  55    0.00010807753994828
  56    2.687278372992e-05
  57    1.8167224221697e-05
  58    4.4891890452232e-05
  59    9.9508752259211e-05
  60    8.5990099217504e-05
  61    -6.7574349002809e-05
  62    -9.0535733629713e-07
  63    4.4886846787995e-06
  64    0.00013893778103906
  65    2.9884145240431e-05
  66    7.8946667480409e-06
  67    3.4960343082562e-06
  68    -1.2567201491196e-05
  69    3.2770968707816e-05
  70    4.515645673834e-05
  71    1.0568935791375e-06
  72    4.6914273736766e-06
  73    4.611328957366e-06
  74    -1.6965125245944e-05
  75    -3.974626164111e-06
  76    6.2599803042898e-05
  77    -4.5491772029026e-05
  78    -4.5394062133505e-05
  79    1.2213957235483e-05
  80    -6.8646331529212e-06
  81    -2.6349432470355e-05
  82    -4.3542529256201e-05
  83    0.00016603019539681
  84    -1.7822720928091e-05
  85    4.0731998684751e-06
  86    -8.5250191311301e-06
  87    0.00016051227255256
  88    2.0107024827103e-05
  89    -4.4627417351309e-05
  90    -3.1767169188275e-06
  91    8.2385873563743e-07
  92    -1.0875760608649e-05
  93    -4.4749879157955e-06
  94    1.1328354692957e-06
 Sym= A
 Ene=               3
 Spin= Alpha
 Occup=    1.00000
   1    -4.6358898995066e-05
   2    4.0840823369857e-05
   3    0.0038902774993276
   4    -0.00024765147116567
   5    -0.00018187070742153
   6    0.00049797251888592
   7    0.00033424993396555
   8    -0.00082175633317409
   9    0.0012264865352088
  10    -4.7242859086823e-05
  11    3.5819629905461e-05
  12    5.5848577577638e-05
  13    1.1353846423245e-05
  14    -2.3966266318311e-06
  15    9.1993954863587e-05
  16    0.00014156305600892
  17    -0.0017138175632174
  18    0.00014318406937978
  19    -1.8204997450274e-05
  20    5.0613761570892e-05
  21    0.00080900766793381
  22    0.00019741752333964
  23    -0.00019173276030342
  24    0.00011191646270784
  25    4.3993296561244e-05
  26    -3.7613517227888e-05
  27    -3.1731797452946e-05
  28    -1.5344344948685e-05
  29    6.259738602838e-05
  30    -4.5497587904054e-05
  31    4.5392701822504e-05
  32    -4.6389470861606e-06
  33    1.3222310880357e-05
  34    -9.0606219611542e-07
  35    4.4899724511103e-06
  36    0.00013894734725529
  37    -2.9889866816965e-05
  38    4.8195209742165e-06
  39    7.1702460731095e-06
  40    1.2559404504924e-05
  41    5.0167866667008e-05
  42    2.4432892227139e-05
  43    1.2402662622579e-05
  44    4.7287264651685e-06
  45    6.9216293005251e-06
  46    -1.0414777605502e-05
  47    -3.9299690146071e-06
  48    -2.6345927670517e-05
  49    -4.3545787168638e-05
  50    0.00016603536825478
  51    1.7822252587896e-05
  52    -7.6855366912579e-06
  53    5.4896384472947e-06
  54    -0.00016051299894584
  55    -4.0459275625349e-05
  56    2.7550243581958e-05
  57    8.424882604943e-06
  58    -9.7230948318189e-07
  59    -8.5134537463394e-06
  60    2.2228380308952e-06
  61    -1.0086496760519e-06
  62    0.00010597270222789
  63    0.00019770003941231
  64    -0.00076044109616113
  65    -8.4020091831548e-06
  66    -4.5544454262065e-05
  67    2.0754916343149e-05
  68    -5.2591176380866e-05
  69    4.0388888852019e-05
  70    -0.00041245371362665
  71    -2.6782300512783e-05
  72    -1.4941323681913e-05
  73    -1.4264008828847e-05
  74    -5.3957178180768e-06
  75    9.8172558310917e-06
  76    -0.00023285254775231
  77    -0.00015061691643294
  78    -2.4067218099459e-06
  79    9.8742625493392e-05
  80    -0.00014906136483525
  81       1.0010165055535
  82    -0.0041100276494131
  83    -0.011260969429627
  84    0.0011161582584547
  85    0.0010689225739142
  86    -0.0026607673097022
  87    -3.9710131547886e-07
  88    4.5428232984589e-05
  89    0.00010174988611098
  90    -0.00010996627150424
  91    7.4338368388821e-05
  92    7.341844212384e-05
  93    1.2016075386134e-05
  94    -3.2471250111357e-05
 Sym= A
 Ene=               4
 Spin= Alpha
 Occup=    1.00000
   1    -5.0945080081614e-05
   2    2.7176019796496e-05
   3    0.0038593769277406
   4    -0.00025776949699476
   5    -0.00034274748562207
   6    -0.00039120619899104
   7    0.00032364290041577
   8    -0.0011848715628715
   9     -0.00095785905372
  10    -2.2007797964179e-05
  11    -3.5117400464593e-05
  12    -7.0166542066542e-05
  13    2.8047497311899e-05
  14    -2.9482039021043e-05
  15    7.8066125879934e-05
  16    0.00010704880011928
  17    -0.0017357594364477
  18    0.00013805385820858
  19    1.8465257329581e-06
  20    -4.4057177710385e-06
  21    0.00073164621153682
  22    0.00036769831929351
  23    0.00036379456871719
  24    4.8175819318863e-05
  25    -1.5310210365522e-06
  26    6.7125173078066e-05
  27    -5.1375673006646e-05
  28    -4.012146166044e-05
  29    6.3094920280194e-05
  30    -2.6599637728222e-05
  31    -2.5635088684361e-05
  32    -5.9281142982739e-05
  33    -1.3885176608607e-05
  34    -4.9589716783696e-05
  35    -9.3056424138853e-05
  36    0.00034233654671704
  37    -4.7675573413017e-06
  38    -4.1256444413504e-05
  39    -1.3268484946303e-05
  40    -1.3846968147899e-05
  41    0.00010162767075204
  42    7.9821576140094e-06
  43    1.5152520943038e-05
  44    1.0636308777823e-06
  45    -5.8636383382326e-06
  46    -1.2789500853141e-05
  47    1.8846308595754e-06
  48    -2.5147306709605e-06
  49    2.8740813047758e-06
  50    0.00012786679271037
  51    -2.0922492861893e-05
  52    -9.2385999641836e-06
  53    1.0459839823575e-05
  54    -2.3898920010124e-05
  55    -6.8891428128561e-05
  56    -9.3812376918944e-06
  57    -3.8777309745103e-06
  58    -4.9191812359937e-06
  59    -1.9539946490703e-06
  60    -1.6566159682854e-05
  61    -1.6489692954378e-06
  62       1.0010110265214
  63    -0.0040231661963039
  64    -0.011129596616243
  65    0.0011000233796259
  66    0.0018204012309056
  67    0.0021610336619089
  68    3.4913418175371e-05
  69    -9.6490531037949e-05
  70    -0.00011432227928061
  71    -4.864836506992e-05
  72    -6.0855670174187e-05
  73    -0.00011446722698728
  74    5.0428439174706e-05
  75    -6.1579362959634e-05
  76    -0.00025105599477988
  77    -0.00014067707425402
  78    -6.5922059448998e-06
  79    0.00014706834625571
  80    0.00011296179058663
  81    0.00010335321267321
  82    0.00019076395654228
  83    -0.00073460666367295
  84    -3.8758368222166e-06
  85    -4.6575748288308e-05
  86    1.8832577369433e-06
  87    -7.2273700722998e-05
  88    0.00017596571624423
  89    0.00036780598659734
  90    -2.8274713173864e-05
  91    1.1278320652755e-05
  92    -5.716814402621e-06
  93    -8.5530109943421e-06
  94    1.3725538727849e-05
 Sym= A
 Ene=               5
 Spin= Alpha
 Occup=    1.00000
   1    7.8059905750886e-05
   2    0.00010705127842568
   3    -0.001735631883982
   4    -0.00013800932271522
   5    -4.0036070209104e-06
   6    2.6004436082695e-06
   7    -0.00073157760996877
   8    0.00042212240906181
   9    0.00029897383875058
  10    1.3634097445851e-06
  11    3.9258707597597e-05
  12    5.7594184729808e-05
  13    -7.8402404864525e-05
  14    8.4910857843182e-06
  15    -5.0994485592987e-05
  16    2.6947479238864e-05
  17      0.00385926233398
  18    0.00025766619965601
  19    -0.00044450071393375
  20    -0.00026943833789989
  21    -0.00032360090272005
  22    -0.0011490476481856
  23    -0.0010005761385149
  24    7.2197523850575e-06
  25    2.2923007371604e-05
  26    -6.421957400372e-05
  27    4.4928263768526e-05
  28    3.9684880286646e-05
  29    -0.00025106558144026
  30    -0.0001406153422196
  31    6.5812250860504e-06
  32    0.00013679623176973
  33    0.00012522022919372
  34       1.0010110689415
  35    -0.0040206951623785
  36    -0.011126732151341
  37    -0.001099266130525
  38    0.0024432324913173
  39    0.0014170024415978
  40    -3.4394950692494e-05
  41    -0.00013007548289589
  42    -7.549369554058e-05
  43    1.3680090211625e-05
  44    5.0086784684079e-05
  45    -0.00010179641134106
  46    8.642151502428e-05
  47    7.064306648023e-05
  48    0.00010335372510718
  49    0.00019077295895193
  50    -0.0007345998766855
  51    3.8714750191207e-06
  52    -6.2684072377534e-06
  53    -4.6188734178257e-05
  54    7.2269204958184e-05
  55    0.00039274476811485
  56    0.00010942776953446
  57    2.1738290365418e-05
  58    -1.1560767010972e-05
  59    4.4649428488297e-06
  60    2.0323832344825e-05
  61    -1.3490311331444e-05
  62    -4.9583666378532e-05
  63    -9.3060022723926e-05
  64    0.00034233949407723
  65    4.7520850609653e-06
  66    -2.0213251220093e-05
  67    -3.8320155520361e-05
  68    1.3837726321623e-05
  69    2.5513475375156e-05
  70    9.8694210950311e-05
  71    5.5875297096085e-06
  72    -1.6715736624872e-06
  73    -7.8115357858615e-06
  74    -1.8311265400656e-05
  75    -1.3754317349015e-06
  76    6.3073283340561e-05
  77    -2.6625204435834e-05
  78    2.5639097169208e-05
  79    -2.3970258310252e-05
  80    -5.5969968335498e-05
  81    -2.5124320932213e-06
  82    2.8751473994416e-06
  83    0.00012783782359037
  84    2.0915510979225e-05
  85    8.6909911890205e-06
  86    -1.0911563958058e-05
  87    2.3884055443353e-05
  88    -2.1208414439185e-05
  89    -6.6209459539065e-05
  90    1.6255823831103e-05
  91    7.6918017971629e-07
  92    2.1454494504013e-06
  93    -4.941252891723e-06
  94    5.1315498834582e-06
 Sym= A
 Ene=               6
 Spin= Alpha
 Occup=    1.00000
   1    -0.0030470054537351
   2    -0.0041203527974998
   3     0.037351869001871
   4     0.014608860421564
   5    -0.010661507776151
   6    0.0072520703366548
   7     0.048318210053172
   8    -0.0084566527351212
   9     0.024589165656904
  10    -0.0093373934929165
  11    -0.024537591955452
  12     0.011291093738595
  13     -0.02842950016603
  14    -0.014095780181569
  15    -0.00052758875260572
  16    -0.020310163563679
  17    -0.076495368976641
  18     0.038104542306506
  19    0.0032139205327024
  20    0.0028853267288831
  21     0.049628883102754
  22    -0.0046408799464531
  23    -0.014163431825992
  24    0.00035646534458756
  25    -0.0015613719139252
  26    0.00080368979197104
  27    -0.00022770589092995
  28    -0.002210583919344
  29    0.0094162951749617
  30     0.011654436131019
  31    0.0022747329657366
  32    0.00074285805619692
  33    -0.0007017542415394
  34    -0.0011720442144303
  35    -0.0083864504152845
  36    -0.0069700258389475
  37     0.012372637179023
  38    0.0018939004875174
  39     0.001777962853024
  40    0.00015134621183727
  41    -0.0027251659644354
  42    0.00086559317140123
  43    -0.00056551145000168
  44    0.00088000003730398
  45    -0.00021880491198099
  46    0.0015775964902597
  47    0.00087536289192387
  48    -8.5603304827935e-06
  49    0.00043740896603721
  50    0.0015028223883312
  51    -0.0038912786371775
  52    -0.0023063028846905
  53    0.00056981736341737
  54    -0.0082799224776835
  55    -0.0011897644220066
  56    0.0032869965387562
  57    0.00019338762254283
  58    0.00021078015824408
  59    -0.00023066210056961
  60    -0.00015268214625776
  61    -0.00045920802809234
  62    -0.00094824157836013
  63     0.010400769729511
  64     0.022632256280767
  65      0.51961578990779
  66      -0.4058109509666
  67      0.11619404081896
  68       0.3584079244687
  69     -0.27784674714948
  70     0.082464762429629
  71    0.0032469971238448
  72    0.0089888657356412
  73    -0.0045336019568576
  74    0.0090438634781081
  75    0.0042315100894149
  76     0.039445935272166
  77     0.045395004496861
  78    -0.0022667924700193
  79    2.593983899779e-06
  80    -0.003117813515686
  81    0.00099240011614773
  82    -0.0006491244813982
  83    -0.014313256920569
  84    -0.0044590970675726
  85    0.0024311180940171
  86    0.0038078353190739
  87    -0.0085252252060457
  88    -0.00036151827678701
  89    0.0039239354443345
  90    -0.00013231865296646
  91    -0.00042831283231763
  92    0.00034056301151012
  93    -0.00060528959025863
  94    -0.00021337214810159
 Sym= A
 Ene=               7
 Spin= Alpha
 Occup=    1.00000
   1    0.00052684651745816
   2     0.020306747987171
   3     0.076493064602356
   4     0.038099157164027
   5    -0.0033991034583857
   6    -0.0026643832014695
   7      0.04962704270032
   8     0.014752174310491
   9    0.0021087999801557
  10    0.00020891926683011
  11    -0.0019053167093183
  12    -0.00068844031944178
  13    0.00055399746220215
  14    -0.0019213425727929
  15    0.0030467269072713
  16    0.0041141421210992
  17    -0.037356610943227
  18     0.014602235178406
  19    -0.0052929174558591
  20     0.011768535216989
  21     0.048314056580842
  22    -0.022755920059623
  23     0.012605935575789
  24    -0.024784930354591
  25    -0.0096165238770257
  26    -0.018241545921057
  27     0.008725479175822
  28    -0.026608853350333
  29    -0.039448768282458
  30    -0.045397720237015
  31    -0.0022670433020866
  32    0.0030703842178756
  33    -0.00054396149092602
  34    0.0009477814244085
  35    -0.010405746067767
  36      -0.0226359748849
  37      0.51953277712372
  38    -0.044062217068144
  39      0.41991390686689
  40       0.3583503111414
  41    -0.033033397960032
  42      0.28800884518148
  43    0.0077318268528934
  44     0.002604641575719
  45    0.0067688610461615
  46    -0.0027038311664013
  47    0.0095864745253429
  48    -0.00099281653681749
  49    0.00065302694495405
  50     0.014325955936579
  51    -0.0044600702333116
  52    -0.0041830553935527
  53    -0.0017308030665273
  54    -0.0085261232808328
  55    -0.0038119994543871
  56    0.0010391896541216
  57    -0.00046769590680858
  58    -0.00013562685813112
  59    -0.00046283756270535
  60    0.00025896324465445
  61    -0.00045875499372594
  62    0.0011721485994518
  63    0.0083859166950743
  64    0.0069673252183747
  65     0.012371474861113
  66    -0.0020772408934216
  67    -0.0015584109384148
  68    0.00015065913272087
  69    -0.00037834554235118
  70    0.0028323323028383
  71    0.0010029078630776
  72    0.00070925909069732
  73    0.00030782750555562
  74    -0.0013249233604995
  75    0.0010184275182871
  76    -0.0094143126650024
  77    -0.011651158624873
  78    0.0022746623801908
  79    0.00056181387781251
  80    -0.00085330781358278
  81    8.6823906834472e-06
  82    -0.00043728766993805
  83    -0.0015034186281688
  84    -0.0038912748666083
  85    -0.00016005910030831
  86    0.0023707468242815
  87    -0.0082803263828166
  88    -0.0030298711473038
  89    0.0017429912827884
  90    -0.00010860824029768
  91    -0.00048874002367358
  92    0.00024789698861537
  93    0.00020156764718545
  94    0.00012775311460758
 Sym= A
 Ene=               8
 Spin= Alpha
 Occup=    1.00000
   1    0.0014632415152255
   2     0.022988164690299
   3     0.052383431526491
   4      0.02415175490652
   5    0.0069566604644208
   6    -0.00077985055425294
   7    -0.0011396991324185
   8     0.010091133244765
   9    0.0060389916865935
  10    4.1643321239715e-05
  11    -0.0011073005345198
  12    0.00068062154701456
  13    -6.2824397013934e-05
  14    -6.189962595405e-05
  15    0.0021328143771052
  16     0.013583909612334
  17     0.018177881283405
  18     0.020536670019686
  19    -0.029918115633719
  20    -0.021426591938911
  21     0.020992950265824
  22    -0.035184942103513
  23    -0.023569260794334
  24     0.014422151459807
  25    -0.016934096734809
  26    -0.007877490912581
  27     0.028993266917985
  28     0.017540697603578
  29    0.0063122980736688
  30    0.0028106571609833
  31    0.00032874797808847
  32    0.00059608590201359