[Molden Format]
made by pyscf v[2.0.1]
[Atoms] (AU)
C   1   6     0.00000000000000     0.00000000000000     0.00000000000000
C   2   6     2.85272299873892     0.00000000000000     0.00000000000000
H   3   1     3.62066923017674     0.00000000000000     1.90331545357504
F   4   9     3.65943188126013    -2.04308229183900    -1.24074875274501
F   5   9     3.65943188126013     2.04308229183900    -1.24074875274501
F   6   9    -0.80670888252121    -0.86712147444210    -2.22749704090169
H   7   1    -0.76794623143782     1.87439981510865     0.33050726003861
F   8   9    -0.80670888252121    -1.57667650804493     1.79658952118831
[GTO]
1 0
 s    8 1.00
                  6665  0.00069158396281299
                  1000  0.0053257961529341
                   228   0.027060721042034
                 64.71    0.10165684614077
                 21.06     0.2745748236174
                 7.495    0.44829431892377
                 2.797    0.28490261071525
                0.5215   0.015194859206082
 s    8 1.00
                  6665  -0.00029326965268655
                  1000  -0.0023180354739745
                   228  -0.011499786038565
                 64.71  -0.046826727009787
                 21.06   -0.12846616875047
                 7.495   -0.30126627246289
                 2.797   -0.25563070233011
                0.5215      1.093793361012
 s    1 1.00
                0.1596                   1
 p    3 1.00
                 9.439   0.056979251590039
                 2.002    0.31320721150073
                0.5456    0.76037674173753
 p    1 1.00
                0.1517                   1
 d    1 1.00
                  0.55                   1

2 0
 s    8 1.00
                  6665  0.00069158396281299
                  1000  0.0053257961529341
                   228   0.027060721042034
                 64.71    0.10165684614077
                 21.06     0.2745748236174
                 7.495    0.44829431892377
                 2.797    0.28490261071525
                0.5215   0.015194859206082
 s    8 1.00
                  6665  -0.00029326965268655
                  1000  -0.0023180354739745
                   228  -0.011499786038565
                 64.71  -0.046826727009787
                 21.06   -0.12846616875047
                 7.495   -0.30126627246289
                 2.797   -0.25563070233011
                0.5215      1.093793361012
 s    1 1.00
                0.1596                   1
 p    3 1.00
                 9.439   0.056979251590039
                 2.002    0.31320721150073
                0.5456    0.76037674173753
 p    1 1.00
                0.1517                   1
 d    1 1.00
                  0.55                   1

3 0
 s    3 1.00
                 13.01   0.033498726389998
                 1.962    0.23480080117413
                0.4446     0.8136829578829
 s    1 1.00
                 0.122                   1
 p    1 1.00
                 0.727                   1

4 0
 s    8 1.00
                 14710  0.00072067370873197
                  2207  0.0055504869689163
                 502.8   0.028254207662589
                 142.6    0.10639582836653
                 46.47    0.28668420124307
                  16.7    0.44843796582416
                 6.356    0.26464118141135
                 1.316   0.015326060993048
 s    8 1.00
                 14710  -0.00032119389049893
                  2207  -0.0025461915683188
                 502.8  -0.012643359507821
                 142.6   -0.05195749170489
                 46.47   -0.14344713812646
                  16.7   -0.33243762329603
                 6.356   -0.21865906750347
                 1.316     1.0955904138622
 s    1 1.00
                0.3897                   1
 p    3 1.00
                 22.67   0.064834021493887
                 4.977    0.34053535983101
                 1.347    0.73464640679382
 p    1 1.00
                0.3471                   1
 d    1 1.00
                  1.64                   1

5 0
 s    8 1.00
                 14710  0.00072067370873197
                  2207  0.0055504869689163
                 502.8   0.028254207662589
                 142.6    0.10639582836653
                 46.47    0.28668420124307
                  16.7    0.44843796582416
                 6.356    0.26464118141135
                 1.316   0.015326060993048
 s    8 1.00
                 14710  -0.00032119389049893
                  2207  -0.0025461915683188
                 502.8  -0.012643359507821
                 142.6   -0.05195749170489
                 46.47   -0.14344713812646
                  16.7   -0.33243762329603
                 6.356   -0.21865906750347
                 1.316     1.0955904138622
 s    1 1.00
                0.3897                   1
 p    3 1.00
                 22.67   0.064834021493887
                 4.977    0.34053535983101
                 1.347    0.73464640679382
 p    1 1.00
                0.3471                   1
 d    1 1.00
                  1.64                   1

6 0
 s    8 1.00
                 14710  0.00072067370873197
                  2207  0.0055504869689163
                 502.8   0.028254207662589
                 142.6    0.10639582836653
                 46.47    0.28668420124307
                  16.7    0.44843796582416
                 6.356    0.26464118141135
                 1.316   0.015326060993048
 s    8 1.00
                 14710  -0.00032119389049893
                  2207  -0.0025461915683188
                 502.8  -0.012643359507821
                 142.6   -0.05195749170489
                 46.47   -0.14344713812646
                  16.7   -0.33243762329603
                 6.356   -0.21865906750347
                 1.316     1.0955904138622
 s    1 1.00
                0.3897                   1
 p    3 1.00
                 22.67   0.064834021493887
                 4.977    0.34053535983101
                 1.347    0.73464640679382
 p    1 1.00
                0.3471                   1
 d    1 1.00
                  1.64                   1

7 0
 s    3 1.00
                 13.01   0.033498726389998
                 1.962    0.23480080117413
                0.4446     0.8136829578829
 s    1 1.00
                 0.122                   1
 p    1 1.00
                 0.727                   1

8 0
 s    8 1.00
                 14710  0.00072067370873197
                  2207  0.0055504869689163
                 502.8   0.028254207662589
                 142.6    0.10639582836653
                 46.47    0.28668420124307
                  16.7    0.44843796582416
                 6.356    0.26464118141135
                 1.316   0.015326060993048
 s    8 1.00
                 14710  -0.00032119389049893
                  2207  -0.0025461915683188
                 502.8  -0.012643359507821
                 142.6   -0.05195749170489
                 46.47   -0.14344713812646
                  16.7   -0.33243762329603
                 6.356   -0.21865906750347
                 1.316     1.0955904138622
 s    1 1.00
                0.3897                   1
 p    3 1.00
                 22.67   0.064834021493887
                 4.977    0.34053535983101
                 1.347    0.73464640679382
 p    1 1.00
                0.3471                   1
 d    1 1.00
                  1.64                   1

[5d]
[7f]
[9g]

[MO]
 Sym= A
 Ene=               0
 Spin= Alpha
 Occup=    1.00000
   1       1.0018728946405
   2    -0.000914481763287
   3    -0.0096549370647015
   4    -0.00017307620076782
   5    -0.0029360935313233
   6    -0.00047105292131523
   7    -0.001715763818539
   8    -0.0014273920649708
   9    -0.00021356836531191
  10    0.00029324398322745
  11    2.704990253711e-05
  12    -8.7308150002549e-05
  13    -8.4421178321427e-05
  14    0.00010813488500406
  15    -0.00020762812508785
  16    -0.00085349069696895
  17    0.0028757498997364
  18    0.0010866340806774
  19    -7.60687837769e-05
  20    6.4694757383184e-05
  21    -0.0012913217345157
  22    5.8828761370903e-05
  23    -0.00030526354845066
  24    8.6954234738485e-05
  25    -3.3885530781696e-05
  26    -1.4318836536904e-05
  27    -0.00018276941761403
  28    -1.9146466181631e-05
  29    0.00012321895719098
  30    0.00061955185880516
  31    -7.3692587279475e-05
  32    6.5701634010712e-07
  33    -5.9144148050897e-05
  34    2.5013824321307e-07
  35    2.5140887094579e-05
  36    -0.00017035531334364
  37    -0.00011203376770718
  38    2.9131688401565e-05
  39    -1.9993826844178e-05
  40    -0.00017443178077746
  41    -8.1576316763073e-05
  42    -4.3606747725627e-05
  43    -1.1564593085616e-05
  44    -2.0128066032025e-06
  45    1.7399112800134e-06
  46    2.6803724591782e-05
  47    -2.3913333179158e-06
  48    8.160260531815e-07
  49    0.00010040940238098
  50    1.1024216320551e-06
  51    -0.00026376835434299
  52    -5.2084690726046e-05
  53    7.5211067596697e-05
  54    -0.00033235995517658
  55    2.024112776102e-05
  56    2.1580200346719e-05
  57    -8.1387513126745e-06
  58    3.9089830474651e-06
  59    -1.4725586679083e-05
  60    1.3441785416244e-05
  61    8.9937778779565e-07
  62    0.00012706339067779
  63    -0.0001286573379282
  64    -0.00062361042648183
  65    -0.00044254998276065
  66    -0.00036505713953311
  67    -0.0011472542766158
  68    -0.00044195183949472
  69    -0.00039679075905105
  70    -0.001669149747849
  71    -0.00020049645847261
  72    -0.00012647350851331
  73    -0.000168783814354
  74    3.1626764152317e-06
  75    -4.2621366722924e-05
  76    -0.0031075071276864
  77    0.00079902810599754
  78    4.8059494798124e-05
  79    0.00034329692610236
  80    4.5033587289253e-05
  81    0.00013352245153995
  82    -0.00011405634058893
  83    -0.00066266882856227
  84    -0.00044850344675732
  85    -0.00072294306678865
  86    0.00095181817472857
  87    -0.00041850798373868
  88    -0.00096454564740086
  89     0.001429961383763
  90    -7.1927396248798e-05
  91    0.00010682144362786
  92    0.00024313343338717
  93    8.2417008152025e-05
  94    -8.5230066661859e-05
 Sym= A
 Ene=               1
 Spin= Alpha
 Occup=    1.00000
   1    -0.00020762496030315
   2    -0.00085347632716964
   3    0.0028757616034235
   4    -0.0010866132332324
   5    7.6923601630006e-05
   6    -6.3678020398145e-05
   7    0.0012913287521945
   8    -0.00031084114222387
   9    4.9275560270556e-06
  10    0.00010972335524847
  11    2.4739068344317e-05
  12    -1.8954913826987e-05
  13    -0.00016962156828431
  14    3.0045719705257e-05
  15       1.0018728947453
  16    -0.00091448312912654
  17    -0.0096549362597766
  18    0.00017304708423891
  19    4.5951229935927e-05
  20    -0.0029732970461942
  21    0.0017157566542401
  22    3.7540571601447e-05
  23    -0.0014427964496679
  24    -8.8314296610371e-05
  25    -0.00011118923632077
  26    -9.6216917078234e-06
  27    -0.00030471117350318
  28    -7.8616657824379e-06
  29    -0.0031075268435234
  30    0.00079902031148935
  31    -4.8059306409649e-05
  32    -1.5263469127381e-05
  33    0.00034590296738881
  34    0.00012706359167385
  35    -0.00012865866357715
  36    -0.00062361172107556
  37    0.00044255081748426
  38    -0.0010664415550052
  39    -0.00055872824056467
  40    0.00044195397045864
  41    -0.001574895076541
  42    -0.00068060543161624
  43    3.8529756388516e-05
  44    6.393561672747e-05
  45    -0.00021745106701647
  46    0.0001411649439092
  47    0.00011715079392099
  48    0.00013352263094618
  49    -0.00011405651116531
  50    -0.00066266910527844
  51    0.00044850470488634
  52    0.0010628987578202
  53    -0.00054668200995741
  54    0.00041851036024021
  55    0.0015757305816195
  56    -0.0007015834543563
  57    3.5502843777712e-05
  58    6.5385797067032e-05
  59    0.00022126040742473
  60    0.00014444228434852
  61    -0.00011999840980915
  62    2.5015930520722e-07
  63    2.5139255939615e-05
  64    -0.00017035820802483
  65    0.00011203100223423
  66    -2.4754604614362e-05
  67    2.5215691879326e-05
  68    0.00017442817787063
  69    -2.878277583202e-05
  70    -8.7910223163431e-05
  71    -1.6738234703888e-05
  72    2.7047137575788e-06
  73    2.7931801524725e-06
  74    2.3816884316476e-05
  75    1.5670301513706e-06
  76    0.00012322099777586
  77    0.00061954995306274
  78    7.3693195295214e-05
  79    -5.8359928038803e-05
  80    -9.6232892957415e-06
  81    8.1605358396273e-07
  82     0.000100408610781
  83    1.0999238685763e-06
  84    0.0002637661266155
  85    8.311259252937e-05
  86    -3.8231565023807e-05
  87    0.00033235705366748
  88    1.7737013582666e-05
  89    2.3682336883029e-05
  90    -1.1950431530942e-05
  91    -1.5646693316595e-06
  92    -1.3949512722193e-05
  93    1.1241223061796e-05
  94    -3.6932664341914e-06
 Sym= A
 Ene=               2
 Spin= Alpha
 Occup=    1.00000
   1    7.1772173066916e-05
   2    0.00010726770322271
   3    -0.0015400554080335
   4    -0.00014218002402516
   5    3.2234764424219e-05
   6    -2.4977315890974e-05
   7    -0.00078752070944888
   8    -9.2791172832374e-05
   9    0.00023841601167049
  10    7.7640015054878e-06
  11    1.3772186880586e-05
  12    -3.8600339075644e-05
  13    -0.00010831204433861
  14    -2.7304894407409e-05
  15    -3.832776927567e-05
  16    6.6932362649373e-05
  17    0.0038220113998203
  18    0.0002642309027033
  19    0.00047929483342861
  20    -0.00027634292790921
  21    -0.00032358892631332
  22    0.0010753983414381
  23    -0.001071711057966
  24    -1.0072818459179e-05
  25    1.2338525293437e-06
  26    6.4076034977095e-05
  27    4.2344507819711e-05
  28    -2.1651284098743e-05
  29    -0.00021970329483139
  30    -0.00012234157988304
  31    -1.1665893056726e-06
  32    -0.00013191519174668
  33    0.00011703999996292
  34    0.00010419771785551
  35    0.00019284079212718
  36    -0.00075482231560053
  37    9.4397175916802e-06
  38    8.3450194337178e-06
  39    -4.9958839021179e-05
  40    4.6343887860796e-05
  41    -0.00040345866943346
  42    0.00012027973732457
  43    2.1612450981181e-05
  44    -1.251929800568e-05
  45    -3.1801120043529e-06
  46    2.1535079564415e-05
  47    1.3100625556615e-05
  48       1.0010172851617
  49    -0.0043160200518549
  50    -0.011535605649953
  51    -0.001064008855668
  52    -0.0025526670797463
  53    0.0015975292198575
  54    5.2034872591308e-05
  55    4.2937409463901e-05
  56    7.7750071502089e-05
  57    2.0526597546832e-05
  58    4.5787241442933e-05
  59    9.8139932669481e-05
  60    8.2812325304529e-05
  61    -6.9392763168294e-05
  62    1.5229824887575e-05
  63    3.4131506956078e-05
  64    7.2993420148537e-05
  65    4.4681015052098e-05
  66    6.0386834335733e-06
  67    -3.8873429946622e-06
  68    -8.9757405292699e-05
  69    -8.5052658689161e-06
  70    4.7716854906059e-05
  71    1.0288940791472e-05
  72    5.3667312307935e-07
  73    -9.0956327065761e-08
  74    -1.7781360496316e-05
  75    -1.0076909627717e-05
  76    5.2098858483171e-05
  77    -0.00013303196872393
  78    -5.4195596829041e-05
  79    7.6919959964548e-06
  80    5.8994196859565e-06
  81    -3.1826990456059e-05
  82    -5.4885781080728e-05
  83    0.00016757160718401
  84    -2.5869667066623e-05
  85    4.8752410023616e-06
  86    -4.0145859889947e-06
  87    0.00017780939742158
  88    2.0942490500755e-05
  89    -3.2824460414413e-05
  90    -5.0258119076402e-06
  91    4.2553032542859e-06
  92    -3.1872428314097e-07
  93    -2.4974680897697e-06
  94    -1.4124641158508e-06
 Sym= A
 Ene=               3
 Spin= Alpha
 Occup=    1.00000
   1    -3.8293814541225e-05
   2    6.7073484807768e-05
   3    0.0038221089374011
   4    -0.00026427705060173
   5    -0.00035549928272788
   6    0.00042419709218512
   7    0.00032365758143586
   8    -0.0012421283055968
   9    0.00087297268873883
  10    -1.1993396552353e-05
  11    2.1139846619711e-05
  12    6.4472465580632e-05
  13    4.1214153892779e-05
  14    -5.0088980928872e-06
  15    7.1772603400544e-05
  16    0.00010723702939161
  17    -0.0015401807376593
  18    0.00014223078020684
  19    -3.0208220468825e-05
  20    2.741489983424e-05
  21    0.00078759640670384
  22    0.00025087372706256
  23    -4.9949474908129e-05
  24    7.6009385209108e-05
  25    2.4491326591769e-05
  26    -5.2500470908546e-05
  27    -6.8913042278232e-05
  28    -1.8296595168653e-05
  29    5.2089793812807e-05
  30    -0.00013305602250935
  31    5.4193981879856e-05
  32    4.4747415782617e-06
  33    8.6024537086175e-06
  34    1.5228694502238e-05
  35    3.4130842309952e-05
  36    7.3005356908168e-05
  37    -4.4683669477089e-05
  38    -4.8719260143937e-06
  39    5.2688085016998e-06
  40    8.9743389886576e-05
  41    4.8478838101407e-05
  42    -9.5707617905995e-08
  43    1.0228732941628e-05
  44    9.8304399767964e-06
  45    -7.8601455688264e-08
  46    -1.7816458106421e-05
  47    -2.277676735893e-06
  48    -3.1827013663769e-05
  49    -5.4877176173406e-05
  50    0.00016760716282231
  51    2.5849203762178e-05
  52    -4.8153387986583e-06
  53    4.1127290582254e-06
  54    -0.00017782767071332
  55    -3.5978105350096e-05
  56    1.4931730333917e-05
  57    4.2893113249656e-06
  58    6.5268976724786e-07
  59    -2.2151161746027e-06
  60    2.8793358769959e-06
  61    -4.4370424791506e-06
  62    0.0001041970361476
  63    0.00019284859995885
  64    -0.00075480197240476
  65    -9.4391816148785e-06
  66    -5.0643820071523e-05
  67    -4.4414798364601e-07
  68    -4.6345602920828e-05
  69    0.00018851314921516
  70    -0.00037643213465847
  71    -2.8855445502661e-05
  72    -1.0727360041874e-05
  73    7.0950448594487e-06
  74    -7.6038697027878e-06
  75    1.4602031003837e-05
  76    -0.00021968879874913
  77    -0.00012237591016632
  78    1.1578969710843e-06
  79    0.0001381664669155
  80    -0.00010957812726166
  81       1.0010172490791
  82    -0.0043179781188205
  83    -0.011537854425681
  84    0.0010650149407187
  85    0.0020170689735041
  86    -0.0022369224704196
  87    -5.134373076347e-05
  88    6.948359553271e-05
  89    5.5476889021874e-05
  90    -4.9823774087977e-05
  91    6.0371199699696e-05
  92    0.00011245250302986
  93    4.2197610936407e-05
  94    -5.7124956938609e-05
 Sym= A
 Ene=               4
 Spin= Alpha
 Occup=    1.00000
   1    5.5718401765722e-05
   2    7.7598629975658e-05
   3    -0.0014201928195615
   4    -0.00015902187468635
   5    -6.8599567002273e-06
   6    -1.6894242548424e-06
   7    -0.00050418667506178
   8    0.00031913945469552
   9    0.00029993508536794
  10    1.4907938213624e-05
  11    3.1352226108894e-05
  12    5.8651871168562e-05
  13    -8.5435111036767e-05
  14    -3.3514849971892e-06
  15    -3.1799536489016e-05
  16    7.2823371440783e-05
  17    0.0035631732991364
  18    0.00028610374910386
  19    -0.00046411862785811
  20    -0.00028246870597139
  21    -0.00021817607993838
  22    -0.0011642507948781
  23    -0.0010135862922197
  24    7.4079580418506e-06
  25    1.8177006822723e-05
  26    -5.9849706028931e-05
  27    4.4386444204517e-05
  28    2.2593291851544e-05
  29    -0.0002352788503972
  30    -0.00013907867233324
  31    8.7653982965733e-06
  32    0.00013934851537688
  33    0.00011954273355592
  34       1.0010096646833
  35    -0.0042665943259476
  36    -0.011427152058414
  37    -0.001051986017604
  38    0.0025716901707764
  39    0.0015057052471326
  40    1.764205157857e-05
  41    -3.2110473302405e-05
  42    -2.4191011302953e-05
  43    1.6601147650743e-05
  44    5.1126943972296e-05
  45    -0.00010133913924516
  46    8.0966072642242e-05
  47    7.049597200938e-05
  48    9.9478385691676e-05
  49    0.00018209420707715
  50    -0.0007023583656113
  51    2.0076950879345e-06
  52    -2.1518794081783e-06
  53    -4.8808157636564e-05
  54    7.1338691300374e-05
  55    0.00038778607583743
  56    0.00012336198383104
  57    2.2960130938363e-05
  58    -1.1518644527823e-05
  59    3.1051110588996e-06
  60    1.7725474128909e-05
  61    -1.3794223371613e-05
  62    -1.4328928705175e-05
  63    -2.5646817466837e-05
  64    0.00018684661334797
  65    3.3297334209912e-05
  66    -2.8896809176435e-06
  67    -3.6569041233057e-05
  68    -9.9636487433503e-05
  69    -1.9954961617295e-05
  70    8.4528446509872e-05
  71    5.2241252990524e-06
  72    -8.63992176404e-06
  73    -6.2627154450305e-08
  74    -2.3980121529104e-05
  75    1.2176849019458e-06
  76    1.9698763219626e-05
  77    4.8892022679762e-05
  78    1.3919962968296e-05
  79    -3.2204750598793e-06
  80    -3.9437814235425e-05
  81    1.3328848302581e-05
  82    3.1685776234136e-05
  83    6.2641987540547e-05
  84    4.077822234732e-05
  85    4.1231702288439e-06
  86    6.8326034640922e-08
  87    -7.8356474439473e-05
  88    9.2604865127821e-06
  89    -5.2154387913014e-05
  90    1.1605654241704e-05
  91    9.8150037219873e-06
  92    -5.3895015550881e-06
  93    -1.3745987183011e-05
  94    2.8473907873443e-06
 Sym= A
 Ene=               5
 Spin= Alpha
 Occup=    1.00000
   1    -3.1767270105929e-05
   2    7.2942120153791e-05
   3    0.0035632866241736
   4    -0.00028613086191455
   5    -0.00019763328901214
   6    -0.00050627582196711
   7    0.00021825498246303
   8    -0.00079597940211859
   9    -0.0013225727470305
  10    -5.8374460229955e-05
  11    -2.545743927873e-05
  12    -4.6457079722497e-05
  13    6.3846341517542e-06
  14    -1.3998387716352e-05
  15    5.5721719356814e-05
  16    7.7579450100333e-05
  17    -0.0014203462397057
  18    0.00015908232941523
  19    -4.7653183626034e-07
  20    -7.054874071226e-06
  21    0.00050428004531876
  22    0.00023993748037395
  23    0.00036635705427306
  24    8.2356601528861e-05
  25    -2.1341156743534e-06
  26    4.4921540698029e-05
  27    -4.6494664552446e-05
  28    -3.1453985697764e-05
  29    1.9725170135143e-05
  30    4.8923254793468e-05
  31    -1.3914964800095e-05
  32    -3.8278561160292e-05
  33    -1.0018898830095e-05
  34    -1.4329230814078e-05
  35    -2.5653887473955e-05
  36    0.00018683763152184
  37    -3.3294791990849e-05
  38    -3.5522235768264e-05
  39    -9.1991419038082e-06
  40    9.9628187361595e-05
  41    8.6702711505849e-05
  42    -4.9731560925055e-06
  43    1.7746736535974e-05
  44    3.0204079607756e-07
  45    -2.6123834399079e-06
  46    -1.674925868339e-05
  47    8.7203609891893e-06
  48    1.3327182499477e-05
  49    3.1681997910863e-05
  50    6.2655432463192e-05
  51    -4.0780580323437e-05
  52    -6.453854093241e-07
  53    4.0753076991448e-06
  54    7.8343136436334e-05
  55    -5.2969466285886e-05
  56    6.9664038080033e-08
  57    4.6713872621249e-06
  58    -4.5075863933009e-06
  59    -3.9778200429959e-06
  60    -1.7749812828429e-05
  61    -9.1718298457618e-06
  62       1.0010096313279
  63    -0.0042684762228257
  64    -0.011429308525086
  65    0.0010530412930943
  66    0.0010364322476171
  67    0.0027946141181831
  68    -1.6913514206071e-05
  69    -1.8133659022174e-05
  70    -3.5455944287614e-05
  71    -0.00010556803004354
  72    -7.8281945034519e-05
  73    -7.6459330406431e-05
  74    1.0435913594311e-05
  75    -3.8100091162567e-05
  76    -0.00023525080311896
  77    -0.00013909957279986
  78    -8.7738785978428e-06
  79     9.35309220751e-05
  80    0.00015798161609412
  81    9.9478184356743e-05
  82    0.00018210304401251
  83    -0.00070234341692645
  84    -2.0105973354821e-06
  85    -4.7681019702941e-05
  86    -1.0608806958486e-05
  87    -7.1346307712827e-05
  88    5.4155326593946e-05
  89    0.00040330515382257
  90    -2.4407378438883e-05
  91    1.5583904672617e-05
  92    1.274917712633e-05
  93    -9.623511360361e-06
  94    8.9468541779182e-06
 Sym= A
 Ene=               6
 Spin= Alpha
 Occup=    1.00000
   1    0.00097323162002272
   2     0.020050191835404
   3     0.068910913834714
   4     0.036533138823442
   5    -0.0021422576823829
   6    -0.0040588640815618
   7     0.043449581014442
   8      0.01896547559312
   9    0.00079273210722307
  10    0.00038881111154251
  11    -0.0018603763253497
  12    -0.00084838844731895
  13    0.00097143517187271
  14    -0.0011118394369872
  15    0.0024369655053964
  16    0.0027695100777325
  17    -0.030131005184712
  18     0.012319348279642
  19    -0.0068797881485101
  20     0.013736583913098
  21     0.042178830716034
  22    -0.024516899912093
  23     0.012970776318468
  24    -0.026069422134719
  25    -0.0087441254464057
  26    -0.019050188023536
  27    0.0068658929097485
  28    -0.025511601370919
  29    -0.040256038393996
  30    -0.045007452101763
  31    -0.0023025473842367
  32    0.0030789397441791
  33    -0.00065919304820841
  34    0.0010313762285222
  35    -0.0041630660809633
  36    -0.016259085002381
  37      0.49618320396212
  38    -0.071095538820716
  39      0.44348918359244
  40      0.34316176806102
  41    -0.051397748410571
  42      0.30426609898615
  43     0.008317769327418
  44     0.002127644176451
  45    0.0068660623240859
  46    -0.0021644233723026
  47    0.0092982201924477
  48    -0.00090554236524923
  49    0.0017827888943077
  50     0.015685831034476
  51    -0.0044167556496117
  52    -0.0064696479576689
  53    -0.0012847802039097
  54    -0.0076924576692244
  55    -0.0055795745775252
  56    0.0013398263358209
  57    -0.00046895970437358
  58    -9.2774838251263e-05
  59    -0.0004629777633033
  60    0.00031313691972601
  61    -0.00044426057279541
  62    0.0012970368678685
  63    0.0072306238235019
  64    0.0032251677750403
  65    0.0099343713766711
  66    -0.0046748712540982
  67    -0.00018560340362868
  68    -0.0021901004503577
  69    -0.0030095978014408
  70    0.0028852636715994
  71    0.00097099855571476
  72    0.00055696827883543
  73    8.4567404496784e-05
  74    -0.00081761970433764
  75    0.0010222479283381
  76    -0.010446060661304
  77    -0.015304871639783
  78    0.0020909491514296
  79    0.00078215443886588
  80    -0.00018982241526425
  81    -0.00044223282437257
  82    -0.00075747687958456
  83    0.0033588857288306
  84    -0.0032571208576152
  85    -0.0004482732887271
  86    0.00067234434304236
  87    -0.0073589663082671
  88    -0.0020404896947798
  89    -0.0010992430372748
  90    6.9109096150479e-05
  91    -0.00035082500345039
  92    6.2748594442261e-05
  93    0.00026723280091854
  94    0.00030175258214671
 Sym= A
 Ene=               7
 Spin= Alpha
 Occup=    1.00000
   1    -0.0024367792363568
   2    -0.0027678532749357
   3     0.030132660959435
   4     0.012317259157161
   5    -0.014725211503043
   6    0.0043907807818881
   7     0.042177587620796
   8    -0.017033516181597
   9     0.021894278224329
  10    -0.00044826211887008
  11    -0.026641145797816
  12     0.024450481073751
  13    -0.022174651192291
  14    -0.0041802403080477
  15    -0.00097298642418818
  16    -0.020049072303721
  17    -0.068910295866146
  18     0.036531509824345
  19    0.0036252655590383
  20    0.0028143582903434
  21     0.043449078422164
  22    0.0025133688981216
  23    -0.018814034171516
  24    0.0012439606095211
  25    -0.0014179402541753
  26    0.00051589191183634
  27    -2.8738748755167e-05
  28    -0.0016389246899656
  29     0.010445389521458
  30     0.015303614017736
  31    0.0020908855961091
  32    0.00032273876293828
  33    -0.00073721750542516
  34    -0.0012970928923355
  35      -0.0072305573858
  36    -0.0032242833687151
  37    0.0099341002410909
  38    -0.00062876759210791
  39    0.0046356998000082
  40    -0.0021902277881845
  41    -0.0033636909403422
  42    0.0024627235894391
  43    -0.00027021392632144
  44    0.0011033849931494
  45    -0.00022724044615315
  46    0.0012222102205198
  47    0.00037098841543606
  48    0.00044222964011946
  49    0.00075763510902213
  50    -0.0033585219143238
  51    -0.0032573988385487
  52    -0.00074029019490614
  53    0.00032446911491055
  54    -0.0073591259173503
  55    0.00072791605442137
  56    0.0022002385416759
  57    0.0002372824570538
  58    0.00023620869864071
  59    -0.00012513837779253
  60    -9.0342304369191e-05
  61    -0.00039787908784235
  62    -0.0010323805181037
  63    0.0041590351133323
  64     0.016254003134545
  65      0.49615616220905
  66     -0.44912747066779
  67    -0.0069696476217979
  68      0.34314301510871
  69      -0.3085896546367
  70    -0.0022006801790888
  71    -6.8096287717422e-05
  72    0.0095260895025568
  73    -0.0085459328835015
  74    0.0069269220978619
  75    0.00048022237433559
  76     0.040256854449874
  77     0.045008055178385
  78    -0.002302625964226
  79    0.0011838653187782
  80    -0.0029177806233003
  81    0.0009056510727266
  82    -0.0017839692809401
  83    -0.015689634197852
  84    -0.0044169677775271
  85    0.00014068279015871
  86    0.0065971948270617
  87    -0.0076926714872184
  88    -0.0022894099464346
  89    0.0052648717565329
  90    0.00018690084530776
  91    -0.00045358387678246
  92    0.00052043091012204
  93    -0.0004760117396078
  94    -1.4185758894588e-05
 Sym= A
 Ene=               8
 Spin= Alpha
 Occup=    1.00000
   1    0.0022823749163267
   2    0.0021327317043945
   3      -0.0200481407981
   4    -0.0081126382761016
   5     0.012879797440402
   6     0.012000617694427
   7    -0.035489689960952
   8     0.010283675258362
   9     0.031014500475554
  10     0.014548320335301
  11    -0.021740092284617
  12     0.011291561578745
  13     0.028226835498637
  14     0.010771838925311
  15    0.0025473615704047
  16     0.023951680967936
  17     0.055818863889342
  18    -0.031839822691014
  19    0.00039326190415536
  20    0.00033300268834951
  21    -0.029297468080764
  22     0.016813253804816
  23    -0.019531988799983
  24    -0.00039495375905679
  25    -0.00018283448083334
  26    0.0014685760176123
  27    0.0015580903099154
  28    0.0010277905740934
  29    0.0060601819472468
  30    -0.00062830286801921
  31    0.00034834293655364
  32    -0.0001802916919703