[Molden Format]
made by pyscf v[2.0.1]
[Atoms] (AU)
C   1   6     0.00000000000000     0.00000000000000     0.00000000000000
C   2   6     2.85272299873892     0.00000000000000     0.00000000000000
H   3   1     3.62066923017674     0.00000000000000     1.90331545357504
F   4   9     3.65943188126013    -2.04308229183900    -1.24074875274501
F   5   9     3.65943188126013     2.04308229183900    -1.24074875274501
F   6   9    -0.80670888252121    -2.04308229183900     1.24074875274501
H   7   1    -0.76794623143782     0.00000000000000    -1.90331545357504
F   8   9    -0.80670888252121     2.04308229183900     1.24074875274501
[GTO]
1 0
 s    8 1.00
                  6665  0.00069158396281299
                  1000  0.0053257961529341
                   228   0.027060721042034
                 64.71    0.10165684614077
                 21.06     0.2745748236174
                 7.495    0.44829431892377
                 2.797    0.28490261071525
                0.5215   0.015194859206082
 s    8 1.00
                  6665  -0.00029326965268655
                  1000  -0.0023180354739745
                   228  -0.011499786038565
                 64.71  -0.046826727009787
                 21.06   -0.12846616875047
                 7.495   -0.30126627246289
                 2.797   -0.25563070233011
                0.5215      1.093793361012
 s    1 1.00
                0.1596                   1
 p    3 1.00
                 9.439   0.056979251590039
                 2.002    0.31320721150073
                0.5456    0.76037674173753
 p    1 1.00
                0.1517                   1
 d    1 1.00
                  0.55                   1

2 0
 s    8 1.00
                  6665  0.00069158396281299
                  1000  0.0053257961529341
                   228   0.027060721042034
                 64.71    0.10165684614077
                 21.06     0.2745748236174
                 7.495    0.44829431892377
                 2.797    0.28490261071525
                0.5215   0.015194859206082
 s    8 1.00
                  6665  -0.00029326965268655
                  1000  -0.0023180354739745
                   228  -0.011499786038565
                 64.71  -0.046826727009787
                 21.06   -0.12846616875047
                 7.495   -0.30126627246289
                 2.797   -0.25563070233011
                0.5215      1.093793361012
 s    1 1.00
                0.1596                   1
 p    3 1.00
                 9.439   0.056979251590039
                 2.002    0.31320721150073
                0.5456    0.76037674173753
 p    1 1.00
                0.1517                   1
 d    1 1.00
                  0.55                   1

3 0
 s    3 1.00
                 13.01   0.033498726389998
                 1.962    0.23480080117413
                0.4446     0.8136829578829
 s    1 1.00
                 0.122                   1
 p    1 1.00
                 0.727                   1

4 0
 s    8 1.00
                 14710  0.00072067370873197
                  2207  0.0055504869689163
                 502.8   0.028254207662589
                 142.6    0.10639582836653
                 46.47    0.28668420124307
                  16.7    0.44843796582416
                 6.356    0.26464118141135
                 1.316   0.015326060993048
 s    8 1.00
                 14710  -0.00032119389049893
                  2207  -0.0025461915683188
                 502.8  -0.012643359507821
                 142.6   -0.05195749170489
                 46.47   -0.14344713812646
                  16.7   -0.33243762329603
                 6.356   -0.21865906750347
                 1.316     1.0955904138622
 s    1 1.00
                0.3897                   1
 p    3 1.00
                 22.67   0.064834021493887
                 4.977    0.34053535983101
                 1.347    0.73464640679382
 p    1 1.00
                0.3471                   1
 d    1 1.00
                  1.64                   1

5 0
 s    8 1.00
                 14710  0.00072067370873197
                  2207  0.0055504869689163
                 502.8   0.028254207662589
                 142.6    0.10639582836653
                 46.47    0.28668420124307
                  16.7    0.44843796582416
                 6.356    0.26464118141135
                 1.316   0.015326060993048
 s    8 1.00
                 14710  -0.00032119389049893
                  2207  -0.0025461915683188
                 502.8  -0.012643359507821
                 142.6   -0.05195749170489
                 46.47   -0.14344713812646
                  16.7   -0.33243762329603
                 6.356   -0.21865906750347
                 1.316     1.0955904138622
 s    1 1.00
                0.3897                   1
 p    3 1.00
                 22.67   0.064834021493887
                 4.977    0.34053535983101
                 1.347    0.73464640679382
 p    1 1.00
                0.3471                   1
 d    1 1.00
                  1.64                   1

6 0
 s    8 1.00
                 14710  0.00072067370873197
                  2207  0.0055504869689163
                 502.8   0.028254207662589
                 142.6    0.10639582836653
                 46.47    0.28668420124307
                  16.7    0.44843796582416
                 6.356    0.26464118141135
                 1.316   0.015326060993048
 s    8 1.00
                 14710  -0.00032119389049893
                  2207  -0.0025461915683188
                 502.8  -0.012643359507821
                 142.6   -0.05195749170489
                 46.47   -0.14344713812646
                  16.7   -0.33243762329603
                 6.356   -0.21865906750347
                 1.316     1.0955904138622
 s    1 1.00
                0.3897                   1
 p    3 1.00
                 22.67   0.064834021493887
                 4.977    0.34053535983101
                 1.347    0.73464640679382
 p    1 1.00
                0.3471                   1
 d    1 1.00
                  1.64                   1

7 0
 s    3 1.00
                 13.01   0.033498726389998
                 1.962    0.23480080117413
                0.4446     0.8136829578829
 s    1 1.00
                 0.122                   1
 p    1 1.00
                 0.727                   1

8 0
 s    8 1.00
                 14710  0.00072067370873197
                  2207  0.0055504869689163
                 502.8   0.028254207662589
                 142.6    0.10639582836653
                 46.47    0.28668420124307
                  16.7    0.44843796582416
                 6.356    0.26464118141135
                 1.316   0.015326060993048
 s    8 1.00
                 14710  -0.00032119389049893
                  2207  -0.0025461915683188
                 502.8  -0.012643359507821
                 142.6   -0.05195749170489
                 46.47   -0.14344713812646
                  16.7   -0.33243762329603
                 6.356   -0.21865906750347
                 1.316     1.0955904138622
 s    1 1.00
                0.3897                   1
 p    3 1.00
                 22.67   0.064834021493887
                 4.977    0.34053535983101
                 1.347    0.73464640679382
 p    1 1.00
                0.3471                   1
 d    1 1.00
                  1.64                   1

[5d]
[7f]
[9g]

[MO]
 Sym= A
 Ene=               0
 Spin= Alpha
 Occup=    1.00000
   1       1.0018566056357
   2    -0.00095081077765417
   3    -0.0094513007252077
   4    -0.00016385984855875
   5    -1.2148935182899e-09
   6     0.003050270787626
   7    -0.0016202857963037
   8    5.8058903009141e-10
   9     0.001608446892485
  10    -0.00010347197928118
  11    -0.00012154729184416
  12    -6.9688594563592e-10
  13    -0.00031056014521368
  14    1.2013514474519e-10
  15    -0.0001938011747448
  16    -0.00085516017385187
  17    0.0027204497811788
  18    0.0010568629266587
  19    4.2394032712705e-10
  20    0.0001251426521114
  21    -0.0011178051877432
  22    -9.807512302452e-11
  23    -0.00035280791981213
  24    7.1177919790543e-05
  25    -2.2122888944886e-05
  26    5.4550422384222e-11
  27    -0.00019993889557066
  28    1.2859784867101e-10
  29    -1.044770153219e-05
  30    0.00038014574044487
  31    -6.3582998770482e-05
  32    -8.3541223319943e-12
  33    -3.0799186662176e-05
  34    -9.6911926980307e-06
  35    7.2060346986323e-05
  36     3.18525494985e-05
  37    -0.0002163707249246
  38    0.00011541476572303
  39    -1.3915565323317e-05
  40    -0.00035474609873333
  41    -1.9374988742989e-05
  42    1.5383745921595e-05
  43    -1.3030622513985e-05
  44    -6.0445795737295e-06
  45    1.1024102564847e-05
  46    1.6419305537992e-05
  47    2.4232107048216e-06
  48    -9.6927949018253e-06
  49    7.2057685661857e-05
  50    3.1849502024635e-05
  51    -0.00021636997824192
  52    -0.00011541559708875
  53    -1.3912837618101e-05
  54    -0.00035474554455449
  55    1.9374500622579e-05
  56    1.5385647274381e-05
  57    -1.3030591554877e-05
  58    -6.04460076101e-06
  59    -1.1024153980728e-05
  60    1.6419297941365e-05
  61    -2.4232177664701e-06
  62    0.0001377362359707
  63    -0.00010642923211906
  64    -0.000704246484509
  65    -0.00044916885013423
  66    -0.0010557483259113
  67    0.00056230032665221
  68    -0.00041658415727549
  69    -0.0016128148606323
  70    0.00067335906157153
  71    3.8281348836037e-05
  72    6.3926546414145e-05
  73    0.00021979379137815
  74    0.00014706552455222
  75    -0.00011973946533504
  76    -0.0030652122630432
  77    0.00086940651297454
  78     5.48715461469e-05
  79    -9.8478164375924e-11
  80    -0.00032725175387583
  81    0.00013772662256137
  82    -0.00010642883303449
  83    -0.0007042460934068
  84    -0.0004491701661754
  85    0.0010557597995982
  86    0.00056229110428553
  87    -0.00041658501788546
  88    0.0016128227659175
  89    0.0006733525644381
  90    3.828157794793e-05
  91    6.3926490544022e-05
  92    -0.00021979379020866
  93    0.00014706570586428
  94    0.00011973959429066
 Sym= A
 Ene=               1
 Spin= Alpha
 Occup=    1.00000
   1    -0.00019380065010134
   2    -0.00085516047500234
   3    0.0027204494845005
   4    -0.0010568627715888
   5    5.1125260430112e-10
   6    -0.00012514226789301
   7    0.0011178051798675
   8    -3.3123800114385e-11
   9    0.00035280803760503
  10    7.1177907928494e-05
  11    -2.2122889709278e-05
  12    -4.4637066529726e-11
  13    -0.00019993889560982
  14    -1.1071881361076e-10
  15       1.0018566056452
  16    -0.00095081053000159
  17    -0.0094513005088975
  18    0.00016385985880991
  19    -9.2780548463055e-10
  20    -0.003050270461396
  21     0.001620285716609
  22    5.4822647442423e-10
  23    -0.001608446766368
  24    -0.00010347197372634
  25    -0.00012154726213149
  26    5.9791730751158e-10
  27    -0.0003105601867524
  28    -1.4947523836031e-10
  29    -0.0030652118952354
  30    0.00086940658824653
  31    -5.4871558985517e-05
  32    -8.1693872872281e-11
  33    0.00032725172346288
  34    0.00013773393759696
  35    -0.00010642938048596
  36    -0.00070424661494447
  37    0.00044916897952776
  38    -0.001055748998643
  39    -0.00056229976078067
  40    0.00041658424159048
  41    -0.0016128153042185
  42    -0.00067335867578652
  43    3.828136632358e-05
  44    6.3926544626569e-05
  45    -0.00021979378967859
  46    0.00014706553509964
  47    0.00011973947491288
  48    0.00013772839851758
  49    -0.00010642909251551
  50    -0.00070424639417302
  51    0.00044916898732134
  52    0.0010557594890552
  53    -0.0005622914252116
  54    0.00041658420308091
  55    0.0016128225528962
  56    -0.00067335281563415
  57    3.8281570082885e-05
  58    6.3926478169837e-05
  59    0.00021979378632068
  60    0.00014706571050826
  61    -0.00011973957060199
  62    -9.6907141538865e-06
  63    7.206066752663e-05
  64    3.1852965919523e-05
  65    0.0002163705985641
  66    0.00011541467616356
  67    1.3915665362831e-05
  68    0.00035474600515531
  69    -1.9375047779463e-05
  70    -1.5383708307082e-05
  71    -1.3030626757791e-05
  72    -6.0445762471561e-06
  73    -1.1024094832066e-05
  74    1.6419306725111e-05
  75    -2.4232122975925e-06
  76    -1.0448154060469e-05
  77    0.00038014568060463
  78    6.3582984999247e-05
  79    -3.7812930545072e-12
  80    3.0799148979412e-05
  81    -9.6931419802067e-06
  82    7.2057802206534e-05
  83    3.1849624389922e-05
  84    0.00021637018029133
  85    -0.00011541563111588
  86    1.391298560372e-05
  87    0.00035474568042702
  88    1.9374477615221e-05
  89    -1.5385562147518e-05
  90    -1.3030598582647e-05
  91    -6.0446027522664e-06
  92    1.1024148093787e-05
  93    1.6419300377115e-05
  94    2.4232120258478e-06
 Sym= A
 Ene=               2
 Spin= Alpha
 Occup=    1.00000
   1    5.9447192231048e-05
   2    8.4820883253431e-05
   3    -0.0014481005224142
   4    -0.00013656158363573
   5    2.768259904897e-05
   6    -1.843322231716e-05
   7     -0.00080326495206
   8    -0.00019071938045896
   9    0.00017781054791576
  10    3.0065427974808e-05
  11    2.5899406697571e-05
  12    -4.049024058735e-05
  13    -0.00010042932780289
  14    -3.9976845163413e-06
  15    -2.9880528300879e-05
  16    8.7828102846741e-05
  17    0.0037885479464961
  18    0.00026871758534561
  19    0.00047940022019549
  20    -0.00029160321580769
  21    -0.00030872781532045
  22    0.0011484159581707
  23    -0.00098934609294298
  24    1.0478853337207e-06
  25    5.8113333290087e-06
  26    5.5124629177723e-05
  27    5.1313299334002e-05
  28    -1.5681651676525e-05
  29    -0.0002420248679564
  30    -0.00014165861695111
  31    2.0331033059881e-06
  32    -0.0001416235525187
  33    0.00011855515972838
  34    9.3294022840858e-05
  35    0.00017023577481364
  36    -0.00068129362866432
  37    5.6266213963058e-06
  38    2.0700075071014e-06
  39    -4.9090860771174e-05
  40    4.9730687854824e-05
  41    -0.00038935354397641
  42    0.00011924565823783
  43    2.1411301665604e-05
  44    -1.2558077074936e-05
  45    -2.8208503503621e-06
  46    2.0123816531487e-05
  47    1.2563105779403e-05
  48       1.0010128267431
  49    -0.0044158612861032
  50    -0.011637692944033
  51    -0.0010375493050152
  52    -0.0026443967726361
  53    0.0015674162790177
  54    6.2170307507116e-05
  55    -1.6668637137556e-05
  56    4.6819344393814e-05
  57    1.6671505100041e-05
  58    4.7325686375381e-05
  59    0.00010071293961076
  60    7.8892497341121e-05
  61    -6.9519950583014e-05
  62    -2.4962980862446e-05
  63    -4.2187277942555e-05
  64    0.00011787299548454
  65    -2.7887370831598e-05
  66    6.1375382991933e-06
  67    1.8609039036974e-06
  68    0.0001755528752173
  69    1.7459765184892e-05
  70    -1.9534493589996e-05
  71    1.6113307427376e-06
  72    4.1400435159655e-06
  73    2.0400780983313e-06
  74    2.3711400492309e-06
  75    -3.4768167773266e-06
  76    9.8936596864285e-05
  77    -0.00015301016170514
  78    -5.6523823167862e-05
  79    -1.4146095935252e-05
  80    -9.3387193835152e-06
  81    2.3339618316412e-05
  82    5.001446195923e-05
  83    -6.4090574880213e-06
  84    3.0078341636205e-05
  85    5.1778515210119e-06
  86    1.0548874933599e-05
  87    -6.1275303486242e-05
  88    -1.5588926549744e-05
  89    -2.4310524407445e-05
  90    7.7426357529963e-06
  91    1.1443045562257e-05
  92    -1.7632890437824e-06
  93    -1.8099292662021e-05
  94     -7.6628893904e-07
 Sym= A
 Ene=               3
 Spin= Alpha
 Occup=    1.00000
   1    -2.9990122167998e-05
   2    8.7311945725673e-05
   3    0.0037882919574965
   4    -0.00026843369192795
   5    -0.00047880455937148
   6    0.00029115669469815
   7    0.00030863219482573
   8    -0.0011484303577738
   9    0.00098941655649992
  10    1.0106369412873e-06
  11    5.7999528483787e-06
  12    5.5148603612849e-05
  13    5.1309774528769e-05
  14    -1.5651020732245e-05
  15    5.9435724595492e-05
  16    8.4870404749996e-05
  17    -0.0014478519097289
  18    0.00013646352060167
  19    -2.7636443542847e-05
  20    1.841143417145e-05
  21    0.00080309460517502
  22    0.00019073066444662
  23    -0.00017793068422401
  24    3.0066195662549e-05
  25    2.5923360614793e-05
  26    -4.0479916836482e-05
  27    -0.00010042661329265
  28    -4.0285537297949e-06
  29    9.8947988767142e-05
  30    -0.00015292376851683
  31    5.6524798605643e-05
  32    1.4149036020244e-05
  33    9.3361158612786e-06
  34    2.3344810249489e-05
  35    5.0021025245711e-05
  36    -6.4680304520464e-06
  37    -3.006992707521e-05
  38    -5.1754220014162e-06
  39    -1.0546601709712e-05
  40    6.1301302258629e-05
  41    1.5562582794909e-05
  42    2.4323548214976e-05
  43    7.7424813995624e-06
  44    1.1443140699612e-05
  45    -1.763982668862e-06
  46    -1.8098658485589e-05
  47    -7.671478722081e-07
  48    -2.4964287520376e-05
  49    -4.2219532231761e-05
  50    0.00011779968466405
  51    2.793034163839e-05
  52    -6.1154175871813e-06
  53    -1.8687960017972e-06
  54    -0.00017551368232112
  55    -1.7432542699759e-05
  56    1.9540956631114e-05
  57    1.6104431794234e-06
  58    4.1384847650583e-06
  59    2.0387178481537e-06
  60    2.3727930028908e-06
  61    -3.4744297036625e-06
  62        1.001012927402
  63    -0.0044106782111892
  64    -0.011631686639006
  65    0.0010361227891516
  66    0.0026418330654879
  67    -0.0015664864129743
  68    -6.3136163846158e-05
  69    1.4922931444392e-05
  70    -4.619636113582e-05
  71    1.6690576250202e-05
  72    4.7346055409234e-05
  73    0.00010075254177163
  74    7.8925053397555e-05
  75    -6.9560718227844e-05
  76    -0.00024201846088882
  77    -0.00014152625049152
  78    -2.0068263909181e-06
  79    0.00014165158491713
  80    -0.00011856049622764
  81    9.3293117715855e-05
  82    0.00017023294516328
  83    -0.00068128284400684
  84    -5.6577449958356e-06
  85    -2.1126612277031e-06
  86    4.9095328926046e-05
  87    -4.9747282978994e-05
  88    0.00038930548678041
  89    -0.00011924742078102
  90    2.141819135805e-05
  91    -1.2561841159442e-05
  92    -2.8211639372257e-06
  93    2.0133263372752e-05
  94    1.2564303787485e-05
 Sym= A
 Ene=               4
 Spin= Alpha
 Occup=    1.00000
   1    -2.9845956474982e-05
   2    8.7986434186776e-05
   3    0.0037886352988833
   4    -0.00026880050411474
   5    0.00047958430701853
   6    0.00029173286290431
   7    0.00030875814369217
   8    0.0011484100719196
   9    0.00098932258143396
  10    1.0600414645296e-06
  11    5.8151336192905e-06
  12    -5.5118295734356e-05
  13    5.1318929584062e-05
  14    1.5690297075686e-05
  15    5.9451114597705e-05
  16    8.4811935429663e-05
  17    -0.0014481758987831
  18    0.00013658584951747
  19    2.7695962281146e-05
  20    1.8438767274504e-05
  21    0.00080331718491506
  22    -0.0001907174300155
  23    -0.0001777735753968
  24    3.0065178677002e-05
  25    2.5892229507987e-05
  26    4.0493497647015e-05
  27    -0.00010043008217817
  28    3.9877627929804e-06
  29    9.8933426828704e-05
  30    -0.0001530390934576
  31    5.6523435186045e-05
  32    -1.4145172049689e-05
  33    9.3395175974819e-06
  34    -2.4962648710026e-05
  35    -4.218158707997e-05
  36    0.00011788912541269
  37    2.7875248024226e-05
  38    6.1478996668772e-06
  39    -1.8568935205227e-06
  40    -0.00017556360369888
  41    1.7470401028235e-05
  42    1.9533272572801e-05
  43    1.6115590094328e-06
  44    4.1404800278722e-06
  45    -2.0404278716639e-06
  46    2.3705813351212e-06
  47    3.4774470463562e-06
  48    2.3337770030982e-05
  49    5.0013723917526e-05
  50    -6.3889722169506e-06
  51    -3.0081267775235e-05
  52    5.1797722994667e-06
  53    -1.0549261491002e-05
  54    6.1267545396255e-05
  55    -1.5596508352562e-05
  56    2.4306758869201e-05
  57    7.7426549561974e-06
  58    1.1443007309524e-05
  59    1.7630344044453e-06
  60    -1.8099510982313e-05
  61    7.6614898351703e-07
  62    9.3293946785211e-05
  63    0.00017022852483557
  64    -0.00068130779288244
  65    -5.6229425191355e-06
  66     2.04584323082e-06
  67    4.9092186626773e-05
  68    -4.9729929887494e-05
  69    -0.0003893761685734
  70    -0.00011924300690706
  71    2.1409348114162e-05
  72    -1.255683351696e-05
  73    2.8210474487537e-06
  74    2.0121199633956e-05
  75    -1.2563056772964e-05
  76    -0.00024202456276984
  77    -0.00014170170114787
  78    -2.0411336743068e-06
  79    -0.00014161480254652
  80    -0.00011855379963533
  81       1.0010127945608
  82    -0.0044175470038716
  83     -0.01163964540173
  84    0.0010379559049347
  85    -0.0026452232542363
  86    -0.0015677058257128
  87    -6.1895851860118e-05
  88    -1.7232427652448e-05
  89    -4.7013418904078e-05
  90    1.6665601125538e-05
  91    4.7319874529688e-05
  92    -0.00010070070302471
  93    7.8881936394701e-05
  94    6.9507979528502e-05
 Sym= A
 Ene=               5
 Spin= Alpha
 Occup=    1.00000
   1    5.9440833955084e-05
   2    8.4856799088006e-05
   3    -0.001447956097601
   4    -0.00013649870780331
   5    -2.7655013475274e-05
   6    -1.8421392945845e-05
   7    -0.00080316671660492
   8    0.0001907272421749
   9    0.00017787926661943
  10    3.0065858202307e-05
  11    2.5913794285283e-05
  12    4.048438326518e-05
  13    -0.00010042772997039
  14    4.0153761895749e-06
  15    -2.994343622632e-05
  16    8.7527368278283e-05
  17    0.0037884096600229
  18    0.0002685463385427
  19    -0.00047905173620352
  20    -0.00029133401416897
  21    -0.00030867478834126
  22    -0.0011484225881179
  23    -0.00098938419519512
  24    1.027019394532e-06
  25    5.8059068737602e-06
  26    -5.5140738380226e-05
  27    5.1315841216717e-05
  28    1.5664517307794e-05
  29    -0.00024201789153139
  30    -0.00014158388157766
  31    2.0178030159125e-06
  32    0.00014163974523822
  33    0.00011855860363051
  34       1.0010128836596
  35    -0.0044129691135551
  36    -0.011634338890851
  37    -0.0010367038898018
  38    0.0026429396506807
  39    0.0015668824591168
  40    6.2743240815212e-05
  41    1.5677932255854e-05
  42    4.6462124378414e-05
  43    1.6682614494734e-05
  44    4.7337846214953e-05
  45    -0.00010073606503329
  46    7.8911190840175e-05
  47    6.9544088918046e-05
  48    9.3292969453928e-05
  49    0.00017022746585217
  50    -0.00068129698545326
  51    5.6512561116209e-06
  52    -2.0865857841775e-06
  53    -4.9094797882018e-05
  54    4.9745403346499e-05
  55    0.00038933151149576
  56    0.00011924528469762
  57    2.1415492292388e-05
  58    -1.2560190863915e-05
  59    2.8212555150622e-06
  60    2.0129579145637e-05
  61    -1.256408629721e-05
  62    2.3342293340132e-05
  63    5.0017789561457e-05
  64    -6.4431555464097e-06
  65    3.007346726896e-05
  66    -5.1769184573836e-06
  67    1.0547741227876e-05
  68    -6.1290796044755e-05
  69    1.5573709321598e-05
  70    -2.431786730972e-05
  71    7.7425212390642e-06
  72     1.14430915753e-05
  73    1.763650441784e-06
  74    -1.8098937952043e-05
  75    7.6690047477452e-07
  76    9.8945382322287e-05
  77    -0.00015296199307709
  78    -5.6524184290646e-05
  79    1.4147802529001e-05
  80    -9.337098389987e-06
  81    -2.4963842091773e-05
  82    -4.2209559209889e-05
  83    0.00011782513272228
  84    -2.791098962555e-05
  85    -6.1249765608791e-06
  86    1.8624810312518e-06
  87    0.00017553049709188
  88    -1.744412683582e-05
  89    -1.9539981174098e-05
  90    1.6108352864126e-06
  91    4.1390631090404e-06
  92    -2.0392168817228e-06
  93    2.372120035778e-06
  94    3.4753297654599e-06
 Sym= A
 Ene=               6
 Spin= Alpha
 Occup=    1.00000
   1    -0.0023606587038344
   2    -0.0030852845391035
   3     0.014294440933088
   4    0.0090964796309123
   5    -0.0079259328379808
   6      0.01306871413553
   7      0.03214985524319
   8     -0.02669838962892
   9     0.016845754023602
  10     0.026188700844083
  11    0.0077886734046599
  12     0.019047923053502
  13    -0.0063538049008162
  14     0.024271429426116
  15    -0.001583889604279
  16    -0.024142095490564
  17    -0.070977946747179
  18     0.032643532845703
  19    0.0028296762972788
  20    -0.0052799281913518
  21     0.019758763549841
  22     0.027532180290583
  23    -0.0056125039426981
  24    -6.6878762660013e-05
  25    0.00044342489592115
  26    0.0017291227672412
  27    -0.0013062741590297
  28    0.00078596094289705
  29    -0.0049395603460236
  30     0.025192178269959
  31    -0.0013460547095314
  32    -0.00021690814718998
  33    -7.9370425609937e-05
  34    -0.0012896672985948
  35    0.00059309026152928
  36     0.019011156602097
  37    -0.0057558011840727
  38    0.0045849306756304
  39    0.0053902033150374
  40    -0.0051076408456192
  41    0.0067026076567227
  42    0.0081252903877563
  43    0.00010379091475764
  44    0.00039783701319307
  45    0.00012588443976581
  46    -0.00042143349082604
  47    0.00043430610752699
  48    0.00060465721726793
  49    0.00081157775793256
  50    -0.0055225945160093
  51    -0.001484740636636
  52    -0.0020710235618172
  53    -0.0015233042529721
  54    -0.0031242955898704
  55    -0.0028032903710164
  56    -0.0022386940130382
  57    6.5013796995291e-06
  58    6.4195502487816e-05
  59     0.000189863044988
  60    -0.00013487632234364
  61    -0.00043870460433699
  62     0.001110987475744
  63    -0.0017927256471577
  64     -0.01794625750416
  65    -0.0038958153879906
  66    -0.0073807392260585
  67    -0.0011195224795876
  68    -0.0066025642872708
  69    -0.0073456630363499
  70    0.00054078048558471
  71    0.00051196852128997
  72    8.6655066278876e-05
  73    0.00043851859481809
  74    -0.00033582585675818
  75    0.00040760564532456
  76     0.041633091696178
  77     0.045868804929262
  78    -0.0023066666347684
  79    0.0031957571621441
  80    -0.00022287338203226
  81    -0.0014688177188176
  82    -0.0029060394582712
  83    0.0095236878798885
  84      0.48460712424561
  85    -0.082994534027776
  86       0.4521826108808
  87      0.33647249420639
  88    -0.059126442984827
  89       0.3111450918091
  90    -0.0083158589952352
  91    -0.0013879797132656
  92    -0.0069723052096465
  93    0.0021863966161008
  94    -0.0091373929575015
 Sym= A
 Ene=               7
 Spin= Alpha
 Occup=    1.00000
   1    -0.0023608020131647
   2    -0.0030859569332956
   3     0.014294139582087
   4    0.0090968742065099
   5    0.0079267033896556
   6     0.013068184902094
   7     0.032149794932147
   8     0.026698398110996
   9     0.016845866042407
  10     0.026188684754952
  11     0.007788675651349
  12    -0.019047909409808
  13    -0.0063538246287895
  14    -0.024271429878874
  15    -0.0015839073756573
  16    -0.024142073877757
  17    -0.070977739186553
  18     0.032643452370666
  19    -0.0028296186932725
  20    -0.0052799525772584
  21     0.019758583903954
  22    -0.027532204094972
  23    -0.0056126566698813
  24    -6.6877429236011e-05
  25    0.00044345521018745
  26    -0.0017291143731998
  27    -0.0013062717637109
  28    -0.0007860013230442
  29    -0.0049395510582331
  30     0.025192318388547
  31    -0.0013460556007137
  32    0.00021691259416843
  33    -7.9373588719005e-05
  34    0.00060466253824147
  35    0.00081158411934924
  36    -0.0055226767235682
  37    -0.0014847167218021
  38    0.0020710175167866
  39    -0.0015233070220928
  40    -0.003124257630103
  41    0.0028032531757236
  42    -0.0022386831452342
  43    6.5014090822681e-06
  44    6.4195805292111e-05
  45    -0.00018986462482073
  46    -0.00013487532921977
  47    0.00043870472600625
  48    -0.0012896752994971
  49    0.00059306380581222
  50     0.019011108175995
  51    -0.005755753560058
  52    -0.0045849085072985
  53    0.0053901833203688
  54    -0.0051075986810432
  55    -0.0067025831278406
  56    0.0081252972510152
  57    0.00010378989482998
  58    0.00039783574450204
  59    -0.00012588597737667
  60    -0.0004214319321457
  61    -0.00043430390856968
  62    -0.0014673159296361
  63    -0.0028996197632863
  64    0.0095311420089457
  65      0.48460610720032
  66     0.082991308361097
  67      0.45218428130117
  68      0.33647181724813
  69     0.059124248701304
  70      0.31114621853666
  71    -0.0083158443390383
  72    -0.0013879579045567
  73    0.0069723649111469
  74    0.0021864441106998
  75    0.0091373549488112
  76     0.041633125562317
  77     0.045869024400367
  78    -0.0023066377441642
  79    -0.0031957251707085
  80    -0.00022288300040121
  81    0.0011109449314388
  82    -0.0017927389238977
  83    -0.017946271624733
  84    -0.0038958251373204
  85    0.0073806590526286
  86    -0.0011195060801142
  87    -0.0066025716344234
  88    0.0073455856004734
  89    0.00054078646986149
  90    0.00051197710816567
  91    8.665027171131e-05
  92    -0.0004385196624416
  93    -0.00033581434994962
  94    -0.00040760585198328
 Sym= A
 Ene=               8
 Spin= Alpha
 Occup=    1.00000
   1    0.0015838953728499
   2     0.024142005259208
   3     0.070977684476036
   4     0.032643369548313
   5    0.0028296177681295
   6    -0.0052799577007457
   7     0.019758531547951
   8     0.027532175066153
   9    -0.0056126985786886
  10    6.6876196010102e-05
  11    -0.00044345186709876
  12    -0.0017291082527871
  13    0.0013062697707047
  14    -0.0007859977838543
  15     0.002360785082439
  16    0.0030858668008184
  17    -0.014294193890161
  18    0.0090967756417886
  19    -0.0079267648435244
  20     0.013068300919715
  21     0.032149716983802
  22    -0.026698511029553
  23     0.016845953790713
  24    -0.026188750690323
  25    -0.0077886192604169
  26    -0.019047946750823
  27    0.0063537211256733
  28    -0.024271376607286
  29    -0.041633160445562
  30    -0.045869035415903
  31    -0.002306642085035
  32    0.0031957292113756
  33    -0.00022288500128858
  34     0.001467755407934