[Molden Format]
made by pyscf v[2.0.1]
[Atoms] (AU)
C   1   6     0.00000000000000     0.00000000000000     0.00000000000000
C   2   6     2.85272299873892     0.00000000000000     0.00000000000000
H   3   1     3.62066923017674     0.00000000000000     1.90331545357504
F   4   9     3.65943188126013    -2.04308229183900    -1.24074875274501
F   5   9     3.65943188126013     2.04308229183900    -1.24074875274501
F   6   9    -0.80670888252121     0.76755391149953    -2.26373667011121
H   7   1    -0.76794623143782     1.22342759088295     1.45802422671364
F   8   9    -0.80670888252121    -2.36262976149657     0.36279929541697
[GTO]
1 0
 s    8 1.00
                  6665  0.00069158396281299
                  1000  0.0053257961529341
                   228   0.027060721042034
                 64.71    0.10165684614077
                 21.06     0.2745748236174
                 7.495    0.44829431892377
                 2.797    0.28490261071525
                0.5215   0.015194859206082
 s    8 1.00
                  6665  -0.00029326965268655
                  1000  -0.0023180354739745
                   228  -0.011499786038565
                 64.71  -0.046826727009787
                 21.06   -0.12846616875047
                 7.495   -0.30126627246289
                 2.797   -0.25563070233011
                0.5215      1.093793361012
 s    1 1.00
                0.1596                   1
 p    3 1.00
                 9.439   0.056979251590039
                 2.002    0.31320721150073
                0.5456    0.76037674173753
 p    1 1.00
                0.1517                   1
 d    1 1.00
                  0.55                   1

2 0
 s    8 1.00
                  6665  0.00069158396281299
                  1000  0.0053257961529341
                   228   0.027060721042034
                 64.71    0.10165684614077
                 21.06     0.2745748236174
                 7.495    0.44829431892377
                 2.797    0.28490261071525
                0.5215   0.015194859206082
 s    8 1.00
                  6665  -0.00029326965268655
                  1000  -0.0023180354739745
                   228  -0.011499786038565
                 64.71  -0.046826727009787
                 21.06   -0.12846616875047
                 7.495   -0.30126627246289
                 2.797   -0.25563070233011
                0.5215      1.093793361012
 s    1 1.00
                0.1596                   1
 p    3 1.00
                 9.439   0.056979251590039
                 2.002    0.31320721150073
                0.5456    0.76037674173753
 p    1 1.00
                0.1517                   1
 d    1 1.00
                  0.55                   1

3 0
 s    3 1.00
                 13.01   0.033498726389998
                 1.962    0.23480080117413
                0.4446     0.8136829578829
 s    1 1.00
                 0.122                   1
 p    1 1.00
                 0.727                   1

4 0
 s    8 1.00
                 14710  0.00072067370873197
                  2207  0.0055504869689163
                 502.8   0.028254207662589
                 142.6    0.10639582836653
                 46.47    0.28668420124307
                  16.7    0.44843796582416
                 6.356    0.26464118141135
                 1.316   0.015326060993048
 s    8 1.00
                 14710  -0.00032119389049893
                  2207  -0.0025461915683188
                 502.8  -0.012643359507821
                 142.6   -0.05195749170489
                 46.47   -0.14344713812646
                  16.7   -0.33243762329603
                 6.356   -0.21865906750347
                 1.316     1.0955904138622
 s    1 1.00
                0.3897                   1
 p    3 1.00
                 22.67   0.064834021493887
                 4.977    0.34053535983101
                 1.347    0.73464640679382
 p    1 1.00
                0.3471                   1
 d    1 1.00
                  1.64                   1

5 0
 s    8 1.00
                 14710  0.00072067370873197
                  2207  0.0055504869689163
                 502.8   0.028254207662589
                 142.6    0.10639582836653
                 46.47    0.28668420124307
                  16.7    0.44843796582416
                 6.356    0.26464118141135
                 1.316   0.015326060993048
 s    8 1.00
                 14710  -0.00032119389049893
                  2207  -0.0025461915683188
                 502.8  -0.012643359507821
                 142.6   -0.05195749170489
                 46.47   -0.14344713812646
                  16.7   -0.33243762329603
                 6.356   -0.21865906750347
                 1.316     1.0955904138622
 s    1 1.00
                0.3897                   1
 p    3 1.00
                 22.67   0.064834021493887
                 4.977    0.34053535983101
                 1.347    0.73464640679382
 p    1 1.00
                0.3471                   1
 d    1 1.00
                  1.64                   1

6 0
 s    8 1.00
                 14710  0.00072067370873197
                  2207  0.0055504869689163
                 502.8   0.028254207662589
                 142.6    0.10639582836653
                 46.47    0.28668420124307
                  16.7    0.44843796582416
                 6.356    0.26464118141135
                 1.316   0.015326060993048
 s    8 1.00
                 14710  -0.00032119389049893
                  2207  -0.0025461915683188
                 502.8  -0.012643359507821
                 142.6   -0.05195749170489
                 46.47   -0.14344713812646
                  16.7   -0.33243762329603
                 6.356   -0.21865906750347
                 1.316     1.0955904138622
 s    1 1.00
                0.3897                   1
 p    3 1.00
                 22.67   0.064834021493887
                 4.977    0.34053535983101
                 1.347    0.73464640679382
 p    1 1.00
                0.3471                   1
 d    1 1.00
                  1.64                   1

7 0
 s    3 1.00
                 13.01   0.033498726389998
                 1.962    0.23480080117413
                0.4446     0.8136829578829
 s    1 1.00
                 0.122                   1
 p    1 1.00
                 0.727                   1

8 0
 s    8 1.00
                 14710  0.00072067370873197
                  2207  0.0055504869689163
                 502.8   0.028254207662589
                 142.6    0.10639582836653
                 46.47    0.28668420124307
                  16.7    0.44843796582416
                 6.356    0.26464118141135
                 1.316   0.015326060993048
 s    8 1.00
                 14710  -0.00032119389049893
                  2207  -0.0025461915683188
                 502.8  -0.012643359507821
                 142.6   -0.05195749170489
                 46.47   -0.14344713812646
                  16.7   -0.33243762329603
                 6.356   -0.21865906750347
                 1.316     1.0955904138622
 s    1 1.00
                0.3897                   1
 p    3 1.00
                 22.67   0.064834021493887
                 4.977    0.34053535983101
                 1.347    0.73464640679382
 p    1 1.00
                0.3471                   1
 d    1 1.00
                  1.64                   1

[5d]
[7f]
[9g]

[MO]
 Sym= A
 Ene=               0
 Spin= Alpha
 Occup=    1.00000
   1    -0.00021038136909307
   2    -0.00084068307264739
   3    0.0029233195542155
   4    -0.0010898858456559
   5    8.1525888925285e-05
   6    1.6403533063545e-06
   7    0.0010948267896207
   8    -7.9194617920786e-06
   9    -8.7888676557274e-05
  10    8.4607636955557e-05
  11    4.2289758161561e-05
  12    -1.8610870553881e-05
  13    -0.00018842468318716
  14    2.6175254143001e-05
  15       1.0018683230749
  16    -0.000905183965887
  17    -0.0094483023219298
  18    0.0001561805350763
  19    4.565440588204e-05
  20    -0.002881911554044
  21    0.0016679480611267
  22    1.2930129078932e-05
  23    -0.0013933011709262
  24    -7.7096280083968e-05
  25    -0.00010242814341177
  26    -1.0294631776369e-05
  27    -0.00028872223974093
  28    7.7602009304489e-06
  29    -0.003145045269533
  30    0.00075110575254461
  31    -3.321281737767e-05
  32    -1.0715035986572e-05
  33    0.00036493741090543
  34    0.00011988559377476
  35    -0.00014200634890327
  36    -0.00059083316259354
  37    0.00044673331879466
  38    -0.0010625328765158
  39    -0.00056214521883596
  40    0.00041902606766674
  41    -0.0015586491074817
  42    -0.00068643017171284
  43    3.588983256064e-05
  44    6.1126785279776e-05
  45    -0.00021449000626077
  46    0.00013924597562175
  47    0.00011622266435868
  48    0.00013050336170589
  49    -0.00012291355076893
  50    -0.00065360275865318
  51    0.00044866173798823
  52    0.0010670439574677
  53    -0.00055310592103382
  54    0.00043076194631644
  55    0.0015847930216614
  56    -0.0007050930277261
  57    3.5428958033091e-05
  58    6.3883423814783e-05
  59    0.00022022825040229
  60    0.00014340690421672
  61    -0.00011893594407743
  62    2.0576863979511e-06
  63    2.3515380826631e-05
  64    -0.00019929266694551
  65    0.00011177590844009
  66    -2.4178564851993e-05
  67    -5.4698379331398e-06
  68    0.00019892560806294
  69    3.4771055309392e-05
  70    -0.00011166783459325
  71    -1.269586494796e-05
  72    3.4977230321982e-06
  73    4.2245041460964e-06
  74    2.6368701972663e-05
  75    -2.5792767321289e-07
  76    0.00016340538167774
  77    0.00044249855319314
  78    5.109634633412e-05
  79    -4.2656719612806e-05
  80    -4.4752133187486e-05
  81    -2.5471767568855e-05
  82    1.5860875128987e-05
  83    5.0072844685956e-05
  84    0.00017475335028699
  85    6.4548949044726e-05
  86    1.3584951234236e-05
  87    0.00035506118839307
  88    -4.086750901765e-05
  89    4.4149439826757e-05
  90    -2.0816238305695e-05
  91    -1.9178307478815e-06
  92    4.6724262306399e-06
  93    1.7273288639037e-05
  94    6.4089898900571e-07
 Sym= A
 Ene=               1
 Spin= Alpha
 Occup=    1.00000
   1       1.0018683235111
   2    -0.00090517847019354
   3    -0.0094483057401116
   4    -0.00015619612553717
   5     -0.00188743335807
   6    -0.0021783348031361
   7    -0.0016679498361069
   8    -0.00090550098829554
   9    -0.0010590185533166
  10    6.521826858397e-05
  11    7.3476710741605e-05
  12    -0.00020613535573723
  13    -0.00020656096715991
  14    7.1783386735333e-05
  15    -0.00021038093569192
  16    -0.00084069304694879
  17    0.0029233109727061
  18    0.0010898991149949
  19    -6.1398787513465e-05
  20    5.3659900386659e-05
  21    -0.0010948214926353
  22    -5.0429021170945e-05
  23    -7.2418626331444e-05
  24    8.3720499858313e-05
  25    -4.922073637597e-05
  26    -1.7390194303765e-05
  27    -0.00018893762805993
  28    -7.1317686168498e-06
  29    0.00016340482156416
  30    0.0004425011013847
  31    -5.1095970123907e-05
  32    3.9108733418656e-06
  33    -6.1701163091565e-05
  34    2.0574439910539e-06
  35    2.3517820811841e-05
  36    -0.00019928999420118
  37    -0.00011177602942721
  38    1.5003349610188e-05
  39    -1.9728142838116e-05
  40    -0.00019892692054235
  41    -9.8416707054204e-05
  42    -6.3189537038619e-05
  43    -1.0659647073937e-05
  44    -2.5135746057669e-06
  45    1.422590970714e-06
  46    2.754427803018e-05
  47    -2.4456867470457e-06
  48    -2.5472988258802e-05
  49    1.5862139554836e-05
  50    5.0075861548113e-05
  51    -0.00017475250172804
  52    -4.0715031272268e-05
  53    5.1899475876112e-05
  54    -0.00035506174879503
  55    5.9685025034934e-05
  56    7.5527787750691e-06
  57    -1.0110806724155e-05
  58    1.0573221969833e-06
  59    -1.0059439821153e-05
  60    2.3454002599671e-05
  61    1.7235343931363e-06
  62    0.00011988769347417
  63    -0.00014200779487414
  64    -0.00059083500923601
  65    -0.0004467130072394
  66    0.00045260265466102
  67    -0.0011135940523266
  68    -0.00041901150419105
  69    0.00075276250125816
  70    -0.001527705184927
  71    -0.00021910969714296
  72    -0.00012153177787866
  73    0.00013641993605564
  74    -7.9783749193636e-06
  75    4.973995524177e-05
  76    -0.0031450433802867
  77    0.00075110641629845
  78    3.3212371378161e-05
  79    0.00024278518765545
  80    0.00027267035005181
  81    0.00013051047632675
  82    -0.000122920371326
  83    -0.00065360958584292
  84    -0.00044863195437249
  85    -0.0011729252051664
  86    0.00026218856515397
  87    -0.00043074056166908
  88    -0.0016672420158025
  89    0.00047855950861905
  90    0.00014998283678842
  91    2.7512966430613e-05
  92    6.2588146468949e-05
  93    0.00020954460785038
  94    -0.00013217307404711
 Sym= A
 Ene=               2
 Spin= Alpha
 Occup=    1.00000
   1    -4.2962172167623e-05
   2    5.8487653518158e-05
   3    0.0038821874437737
   4    -0.00026801433801104
   5    -0.00053781958351293
   6    8.8549570054507e-05
   7    0.00037169513921455
   8    -0.0015737934796143
   9    -0.00013046381385803
  10    2.8649172828822e-05
  11    -7.2651619518232e-06
  12    1.1490489886268e-05
  13    6.9813174716073e-05
  14    -2.5035707399768e-05
  15    5.956511517442e-05
  16    7.5861590253545e-05
  17    -0.0015942108848418
  18    0.00012889463470581
  19    -2.5837497886056e-05
  20    -1.6163445564978e-05
  21    0.00083743902930316
  22    0.00037629309664106
  23     0.000241005229223
  24    -7.5006909632623e-06
  25    -2.4727139274029e-05
  26    -4.6780601148787e-06
  27    -0.00010977431378329
  28    -2.157377376395e-05
  29    9.622097481806e-05
  30    -0.00020566680381318
  31    1.3045549050849e-05
  32    -1.8160363258416e-05
  33    -1.613333137134e-05
  34    -1.2453590598675e-05
  35    -2.1453043692163e-05
  36    0.00018413620900129
  37    -2.6466607609818e-05
  38    -2.2549859914017e-05
  39    -2.332985102937e-05
  40    6.3124534419986e-05
  41    4.5191175726216e-05
  42    4.2264498435315e-05
  43    1.0404424828271e-05
  44    7.5518088980629e-06
  45    -1.065835463729e-05
  46    -2.0920416615333e-05
  47    8.4445994470226e-07
  48    -2.7408082447329e-05
  49    -4.6534313275252e-05
  50    0.0001549015480511
  51    1.8658355084228e-05
  52    8.9842635569846e-07
  53    1.1250452125788e-05
  54    -0.00015059428856523
  55    -6.5521288350383e-05
  56    -2.4919079459265e-05
  57    -7.2389739243225e-06
  58    1.5428810692459e-06
  59    8.0757653023707e-06
  60    -6.0299941273919e-06
  61    -2.260157815802e-06
  62    0.00010340534083711
  63    0.00019016045514823
  64    -0.00074214469202212
  65    -4.1271882121849e-06
  66    -3.5381643737131e-05
  67    -3.4006416022567e-05
  68    -5.9636775802794e-05
  69    0.00038654355276536
  70    -0.00016296813221977
  71    -3.2361307666667e-07
  72    4.4355657479863e-07
  73     2.85469457946e-05
  74    7.7121019125022e-06
  75    1.771840709998e-05
  76    -0.00023173375179349
  77    -7.9366356086494e-05
  78    -2.0346505853439e-06
  79    0.00018078844654284
  80    3.0199363449041e-06
  81       1.0010155353336
  82    -0.0042892286182325
  83     -0.01150967857107
  84    0.0010585837552661
  85    0.0029577187277027
  86    -0.00048082219483182
  87    -3.2274671300291e-05
  88    -2.8524928073666e-05
  89    1.997812129663e-05
  90    6.1696991450551e-05
  91    5.8907556667677e-06
  92    3.7897485389999e-05
  93    0.00010907466746219
  94    -8.6503732700069e-05
 Sym= A
 Ene=               3
 Spin= Alpha
 Occup=    1.00000
   1    5.958280627455e-05
   2    7.5882692401889e-05
   3    -0.0015943298336842
   4    -0.00012891867855042
   5    9.4479646942685e-06
   6    -2.900995565357e-05
   7    -0.0008375120494616
   8    -0.00013333874073594
   9    0.00042648333704114
  10    3.2430190880361e-05
  11    3.277659510528e-05
  12    -5.9635604455126e-05
  13    -8.671752052036e-05
  14    -6.0425491336616e-07
  15    -4.284903384032e-05
  16    5.8982169421986e-05
  17    0.0038823738128559
  18    0.00026829884312944
  19     0.000469453631721
  20    -0.00027827235323959
  21    -0.00037168284044273
  22    0.0011217246697601
  23    -0.0011115119060847
  24    -4.2772252411186e-06
  25    2.1648315890183e-05
  26    5.6814500712151e-05
  27    5.083578414014e-05
  28    -1.4488773333205e-05
  29    -0.00023178539986106
  30    -7.9561719173546e-05
  31    2.0566720952825e-06
  32    -0.00013652805363301
  33    0.00011851830862409
  34    0.00010340510226766
  35    0.00019013006417129
  36    -0.0007422033022188
  37    4.1143139875502e-06
  38    5.1755504742981e-06
  39    -4.8792366070019e-05
  40    5.9620482909329e-05
  41    -0.00040093779230489
  42    0.00012362497939403
  43    2.1457569636841e-05
  44    -1.1725921326741e-05
  45    -1.4353338091362e-06
  46    2.0283456744666e-05
  47    1.3288388951981e-05
  48       1.0010154458942
  49    -0.004294136473187
  50    -0.011515387779949
  51    -0.0010588751181219
  52    -0.0025774152324121
  53    0.0015340432704231
  54    3.2088424162544e-05
  55    3.2918774580921e-05
  56    -2.2400555701361e-06
  57    1.6741643587834e-05
  58    5.1082222222758e-05
  59    9.9701134894379e-05
  60    8.3085186213281e-05
  61    -7.003116789757e-05
  62    -1.2453103063513e-05
  63    -2.1445953879796e-05
  64    0.00018415309644286
  65    2.6478968348618e-05
  66    2.3049919818595e-06
  67    -3.238991952715e-05
  68    -6.3118044812794e-05
  69    -7.4524803647735e-06
  70    6.1424600856256e-05
  71    2.3542806471699e-06
  72    -6.3273450040425e-06
  73    4.2274717630947e-07
  74    -2.5570113247195e-05
  75    -4.2093520212305e-06
  76    9.6251838452969e-05
  77    -0.00020566929611918
  78    -1.3045038714523e-05
  79    3.5452363833476e-06
  80    -2.4032228432406e-05
  81    -2.7404947016949e-05
  82    -4.6521394668489e-05
  83    0.00015491186257456
  84    -1.8638611057503e-05
  85    6.5582021274833e-06
  86    9.2010057684004e-06
  87    0.00015061224072289
  88    3.4180759324124e-05
  89    -6.1200560023998e-05
  90    6.2939861978292e-06
  91    2.7058058053819e-07
  92    -1.0545270641324e-05
  93    1.7822984392718e-06
  94    -2.7247634357112e-06
 Sym= A
 Ene=               4
 Spin= Alpha
 Occup=    1.00000
   1    5.772975648292e-05
   2    8.1896127104214e-05
   3    -0.0014503139237807
   4    -0.00015816141659331
   5    1.9391939523672e-08
   6    -1.4630064475928e-05
   7    -0.00048857053638667
   8    0.00029152602616308
   9    0.00032900675782151
  10    1.2081261709081e-05
  11    9.7141845511963e-06
  12    5.2714739786839e-05
  13    -8.3871319055124e-05
  14     1.32481343875e-05
  15    -3.4808505528941e-05
  16    6.8711097008003e-05
  17    0.0035815212409904
  18    0.00028868656120321
  19    -0.00047538028834268
  20    -0.00027596934556944
  21    -0.00021697605627251
  22    -0.0011249286234544
  23    -0.0010852636729706
  24    -1.6715044856653e-06
  25    6.3179094938252e-06
  26    -6.6228473202577e-05
  27    3.915963242132e-05
  28    2.8801685946859e-05
  29    -0.00021794517615076
  30    -0.00013663389330668
  31    8.6518461068729e-06
  32    0.0001341187961955
  33    0.00011746605852878
  34       1.0010131125734
  35    -0.0042904969531284
  36     -0.01148215268412
  37    -0.001038700288205
  38    0.0025538767710527
  39     0.001577302382275
  40    3.4374290955423e-05
  41    -6.8222207741071e-05
  42    6.3989699264995e-05
  43    1.9521180965372e-05
  44    4.7279087514467e-05
  45    -9.9622129677015e-05
  46    8.128182129975e-05
  47    7.321385556978e-05
  48    0.00010621373146439
  49    0.00019668875630286
  50    -0.0007507269481124
  51    5.0858506927705e-06
  52    -5.8314655071161e-06
  53    -4.8495199874808e-05
  54    6.2556656024722e-05
  55    0.00039845619590174
  56    0.00012102224856086
  57    2.2905754571918e-05
  58    -1.1235682431525e-05
  59    3.5097090778521e-06
  60    1.9513739024185e-05
  61    -1.3446075592485e-05
  62    7.221107697542e-06
  63    1.7645479725579e-05
  64    0.00012295587472783
  65    5.4296132067537e-05
  66    -8.2011811232326e-07
  67    -5.2446479794908e-06
  68    -0.00013481683290807
  69    -3.4619894320734e-05
  70    5.0053061177161e-05
  71    1.1389624832731e-05
  72    -2.9533534853329e-06
  73    -1.2588139561896e-06
  74    -1.8823936554736e-05
  75    1.0234590206996e-05
  76    1.8906985276398e-05
  77    6.1243623671545e-05
  78    2.3017628455212e-05
  79    -2.3019780537326e-05
  80    -5.0601129983437e-06
  81    -1.2470562491067e-05
  82    -2.1304473352571e-05
  83    0.00015974268486514
  84    2.4977607020377e-05
  85    -2.8286989398594e-05
  86    2.0925773873166e-05
  87    -6.9828116611178e-05
  88    5.9031377230319e-05
  89    -8.071714793146e-05
  90    1.1887056766011e-05
  91    7.8082741984376e-06
  92    2.5978566239538e-06
  93    -1.7545067262923e-05
  94    -6.1803719030958e-06
 Sym= A
 Ene=               5
 Spin= Alpha
 Occup=    1.00000
   1    -3.4774308833922e-05
   2    6.8847311782907e-05
   3    0.0035816376192906
   4    -0.00028872408235141
   5    0.00018683852140242
   6    -0.00051711544082811
   7    0.00021702901057834
   8    0.00016418768309599
   9     -0.00155442742402
  10    -7.1145451177253e-05
  11    -2.3389631283591e-05
  12    2.9363292509143e-05
  13    -9.5322958887293e-07
  14    1.8010682578325e-05
  15    5.7734842262071e-05
  16    8.1892783975471e-05
  17    -0.0014504295862651
  18    0.00015818462899493
  19    -9.4153222563057e-06
  20    -1.1206725236185e-05
  21    0.00048863999407427
  22    -1.184699486537e-05
  23    0.00043941122793922
  24    7.956766348593e-05
  25    -1.594618128248e-05
  26    -4.014908907118e-05
  27    -4.490737651639e-05
  28    3.9014560280967e-06
  29    1.8918999355061e-05
  30    6.1258267216958e-05
  31    -2.3013602156364e-05
  32    1.4382359353936e-05
  33    -1.8670456362733e-05
  34    7.220580036975e-06
  35    1.7647573143253e-05
  36    0.00012296730184217
  37    -5.4298716785345e-05
  38    -2.7478992571566e-06
  39    -4.5484330670891e-06
  40    0.0001348043421751
  41    5.869252296015e-05
  42    1.608942154999e-05
  43    9.992682319916e-06
  44    -4.31579421519e-06
  45    6.6354438916023e-07
  46    -1.9630531958325e-05
  47    9.7384896856884e-06
  48    -1.2471238771885e-05
  49    -2.1306381777644e-05
  50    0.00015974926173366
  51    -2.4971597653845e-05
  52    3.512938165554e-05
  53    -2.1614451875367e-06
  54    6.9828123233245e-05
  55    -9.7099968085228e-05
  56    -2.3887103735276e-05
  57    1.3013378349983e-05
  58    -2.0085908124137e-06
  59    1.0477313610492e-06
  60    -1.6894411059852e-05
  61    -9.7536661119367e-06
  62       1.0010130776817
  63    -0.0042925241801437
  64    -0.011484483550879
  65    0.0010393700702365
  66    -0.00094261972072322
  67    0.0028506216516814
  68    -3.3912076967392e-05
  69    9.3315669721629e-05
  70    5.6726218868285e-06
  71    -0.00010661669970039
  72    -8.3263474155421e-05
  73    7.3968291239022e-05
  74    8.4545028132524e-06
  75    2.569113372196e-05
  76    -0.00021793320125204
  77    -0.00013668526773335
  78    -8.6591037766598e-06
  79    -2.7229994164362e-05
  80    0.00017618976461497
  81    0.00010621354539725
  82    0.00019669464223561
  83    -0.00075071724283478
  84    -5.098062084997e-06
  85    -2.6680043471186e-05
  86    -4.0901596462303e-05
  87    -6.2567958717322e-05
  88    -0.00022742939876513
  89    0.00034882748402132
  90    4.7202285929642e-06
  91    1.7248685033786e-05
  92    2.8532603759925e-05
  93    9.0129898777449e-06
  94    -3.0788691865611e-06
 Sym= A
 Ene=               6
 Spin= Alpha
 Occup=    1.00000
   1    -0.0019629162665387
   2    -0.013519414618977
   3    -0.014461480755606
   4     0.019537728916467
   5    -0.0088687921300646
   6     0.039159862278233
   7     0.016406794402615
   8    -0.0083197427595584
   9     0.046647852849081
  10     0.012523510723954
  11    -0.0029736569723504
  12    -0.031795076409382
  13    -0.010580549567855
  14    -0.021322326155406
  15    -0.0028396891780095
  16    -0.019643908438347
  17    -0.024737050134448
  18     0.022432230106077
  19    -0.0033600749407174
  20    -0.0021805264226907
  21    0.0051867385938812
  22    -0.019526318541723
  23    -0.013133352056912
  24    -0.00095012717150331
  25    -0.0016885643917323
  26    -0.0012826583253189
  27    -0.0014837237011925
  28    -0.00061305727020886
  29    -0.0047485811218249
  30     0.014939437525489
  31    0.00065834212250852
  32    0.00045172538475103
  33    -0.00051475198803686
  34    0.00092047205796244
  35    0.00051390523627681
  36    -0.010662563835958
  37    0.00020968689032457
  38      0.00250252176336
  39    -0.0046327131704984
  40    -3.5232318542138e-05
  41    -0.00010468096995613
  42    -0.0038510029881079
  43    2.5047519636436e-05
  44    -0.00025610308792248
  45    -0.00032652069890623
  46    0.00010732502755708
  47    0.00050859167970652
  48    -0.00089678969437257
  49    0.0018033891141756
  50     0.014010253857703
  51    -0.0070124846902375
  52    -0.0046685958341826
  53    0.0044782982790311
  54    -0.0083302938746588
  55    -0.0042502631652321
  56    0.0066828463802304
  57    7.9729428316761e-05
  58    0.00020778534417553
  59    -0.00015452767031158
  60    -0.00031493141110004
  61    -0.00022581615245697
  62    -0.0016162212970056
  63     0.014888499871863
  64     0.050534740182663
  65    0.0035070591667274
  66     -0.02459587445432
  67     0.030853490466507
  68    0.0036678602568966
  69    -0.024265671752658
  70     0.029614129108291
  71    0.00014252688094683
  72    -0.00025880232794318
  73    -0.00015651829780394
  74    0.00034034332595798
  75    -0.00072243952260738
  76    -0.011550396997794
  77    -0.012009884757599
  78    0.00055653103802193
  79    0.00023115407962441
  80    -0.00099405163208371
  81    -0.0010105991903942
  82    -0.008315934283464
  83    -0.0044881710752027
  84       0.3921041924592
  85    -0.054947958990158
  86       0.5312545960256
  87      0.27221562190473
  88     -0.03604879020931
  89      0.36592925045816
  90    -0.0023861764403704
  91    0.0035776733239043
  92     0.011521828541255
  93    0.0042542420309567
  94    0.0080005651344512
 Sym= A
 Ene=               7
 Spin= Alpha
 Occup=    1.00000
   1    0.0016655780788782
   2     0.022479998869374
   3     0.063307896015783
   4     0.034815909163514
   5    -0.00044053080777939
   6    -0.0032609050508291
   7     0.040826680687146
   8    -0.019634585394285
   9    -0.0011601713807146
  10    0.0005097792940074
  11    -0.0020010610978561
  12    0.00093770923631964
  13    0.0012198021490341
  14    0.00057324989061087
  15    0.0025204435950126
  16    0.0028617021229306
  17    -0.028063392743829
  18     0.011662520659111
  19    0.0065897184996071
  20     0.013690970511869
  21     0.041909330123201
  22     0.027749560479229
  23     0.013958232956756
  24    -0.025672598280946
  25    -0.0087098839399136
  26     0.019077908733539
  27    0.0065455494112809
  28     0.025098287923108
  29    -0.040666216048861
  30    -0.046340016650707
  31    -0.0022764058089884
  32    -0.0033459735398053
  33    -0.00052984709706444
  34    -0.0009462960726894
  35    0.0018291994653047
  36     0.016617627505878
  37    -0.0046928536099953
  38    0.0066487208573379
  39    -0.0010340235297847
  40    -0.0073677085044176
  41     0.006007742619692
  42    0.0016107523253448
  43    -0.00045305459507359
  44    -7.8608367387512e-05
  45    0.00046289365263342
  46    0.00029187565643868
  47    0.00042862529873818
  48    0.0010971591721871
  49    -0.0033857835965842
  50    -0.016502233337572
  51      0.49492653548311
  52     0.073105504836142
  53      0.44461948400145
  54      0.34248615473293
  55     0.052737615071947
  56      0.30484622313825
  57    0.0085197302194402
  58    0.0021424476877241
  59    -0.0066831041587517
  60    -0.0022480841912276
  61    -0.009141690732263
  62    0.0014518700566961
  63    0.0069808109720566
  64    0.00069489823388767
  65    0.0097583392367547
  66    0.0057625555975293
  67    -0.0003332091398452
  68    -0.0018265894051866
  69    0.0042259586559134
  70    0.0022199824500907
  71    0.00090283474540302
  72    0.00053233618210415
  73    -0.00010328355079708
  74    -0.00075966064958128
  75    -0.00097653530200875
  76    -0.00053494611500347
  77    0.0002122835116963
  78    0.00047177635167346
  79    0.0012075140930547
  80    -0.00081093835368483
  81    0.00051169655670369
  82    -0.0013179550415453
  83    -0.011843093977442
  84    -0.0065689131487805
  85    -0.0040630739422992
  86    0.0014556744938025
  87    -0.0061940149328688
  88    -0.0055778876173491
  89     0.001423151532933
  90    -0.00014070340506073
  91    -0.0002060947237808
  92    -1.3092080817309e-05
  93    0.00049545719474273
  94    0.00061895600652746
 Sym= A
 Ene=               8
 Spin= Alpha
 Occup=    1.00000
   1    0.0020949093471721
   2     0.020856945554836
   3     0.055954379168289
   4     0.034244941536387
   5    8.7706192095504e-05
   6    -0.0028037419955223
   7     0.028831207897048
   8     0.024605024975848
   9     0.010438701465243
  10    -0.0006407480528564
  11    -0.00076292769262997
  12    -0.001324477129133
  13    0.0011428038036224
  14    -0.0008117341359732
  15    0.0016712203561379
  16    0.0013092920962019
  17    -0.015166109315931
  18    0.0085050612454878
  19    -0.0097431329944637
  20     0.015893936955088
  21     0.032955729325881
  22    -0.028360595474535
  23     0.017037337390017
  24    -0.027770650155999
  25    -0.006904481919578
  26    -0.019988147777122
  27    0.0044081278855037
  28    -0.023823794915874
  29    -0.043069995781366
  30    -0.047761660583058
  31    -0.0022503979606897
  32    0.0031299744170454
  33    -0.0004738986028825
  34    0.0010087351468113