[Molden Format]
made by pyscf v[2.0.1]
[Atoms] (AU)
C   1   6     0.00000000000000     0.00000000000000     0.00000000000000
C   2   6     2.85272299873892     0.00000000000000     0.00000000000000
H   3   1     3.62066923017674     0.00000000000000     1.90331545357504
F   4   9     3.65943188126013    -2.04308229183900    -1.24074875274501
F   5   9     3.65943188126013     2.04308229183900    -1.24074875274501
F   6   9    -0.80670888252121     1.14898679038220    -2.09606108551054
H   7   1    -0.76794623143782     0.95165772678752     1.64831953421149
F   8   9    -0.80670888252121    -2.38973554312721    -0.05297879367154
[GTO]
1 0
 s    8 1.00
                  6665  0.00069158396281299
                  1000  0.0053257961529341
                   228   0.027060721042034
                 64.71    0.10165684614077
                 21.06     0.2745748236174
                 7.495    0.44829431892377
                 2.797    0.28490261071525
                0.5215   0.015194859206082
 s    8 1.00
                  6665  -0.00029326965268655
                  1000  -0.0023180354739745
                   228  -0.011499786038565
                 64.71  -0.046826727009787
                 21.06   -0.12846616875047
                 7.495   -0.30126627246289
                 2.797   -0.25563070233011
                0.5215      1.093793361012
 s    1 1.00
                0.1596                   1
 p    3 1.00
                 9.439   0.056979251590039
                 2.002    0.31320721150073
                0.5456    0.76037674173753
 p    1 1.00
                0.1517                   1
 d    1 1.00
                  0.55                   1

2 0
 s    8 1.00
                  6665  0.00069158396281299
                  1000  0.0053257961529341
                   228   0.027060721042034
                 64.71    0.10165684614077
                 21.06     0.2745748236174
                 7.495    0.44829431892377
                 2.797    0.28490261071525
                0.5215   0.015194859206082
 s    8 1.00
                  6665  -0.00029326965268655
                  1000  -0.0023180354739745
                   228  -0.011499786038565
                 64.71  -0.046826727009787
                 21.06   -0.12846616875047
                 7.495   -0.30126627246289
                 2.797   -0.25563070233011
                0.5215      1.093793361012
 s    1 1.00
                0.1596                   1
 p    3 1.00
                 9.439   0.056979251590039
                 2.002    0.31320721150073
                0.5456    0.76037674173753
 p    1 1.00
                0.1517                   1
 d    1 1.00
                  0.55                   1

3 0
 s    3 1.00
                 13.01   0.033498726389998
                 1.962    0.23480080117413
                0.4446     0.8136829578829
 s    1 1.00
                 0.122                   1
 p    1 1.00
                 0.727                   1

4 0
 s    8 1.00
                 14710  0.00072067370873197
                  2207  0.0055504869689163
                 502.8   0.028254207662589
                 142.6    0.10639582836653
                 46.47    0.28668420124307
                  16.7    0.44843796582416
                 6.356    0.26464118141135
                 1.316   0.015326060993048
 s    8 1.00
                 14710  -0.00032119389049893
                  2207  -0.0025461915683188
                 502.8  -0.012643359507821
                 142.6   -0.05195749170489
                 46.47   -0.14344713812646
                  16.7   -0.33243762329603
                 6.356   -0.21865906750347
                 1.316     1.0955904138622
 s    1 1.00
                0.3897                   1
 p    3 1.00
                 22.67   0.064834021493887
                 4.977    0.34053535983101
                 1.347    0.73464640679382
 p    1 1.00
                0.3471                   1
 d    1 1.00
                  1.64                   1

5 0
 s    8 1.00
                 14710  0.00072067370873197
                  2207  0.0055504869689163
                 502.8   0.028254207662589
                 142.6    0.10639582836653
                 46.47    0.28668420124307
                  16.7    0.44843796582416
                 6.356    0.26464118141135
                 1.316   0.015326060993048
 s    8 1.00
                 14710  -0.00032119389049893
                  2207  -0.0025461915683188
                 502.8  -0.012643359507821
                 142.6   -0.05195749170489
                 46.47   -0.14344713812646
                  16.7   -0.33243762329603
                 6.356   -0.21865906750347
                 1.316     1.0955904138622
 s    1 1.00
                0.3897                   1
 p    3 1.00
                 22.67   0.064834021493887
                 4.977    0.34053535983101
                 1.347    0.73464640679382
 p    1 1.00
                0.3471                   1
 d    1 1.00
                  1.64                   1

6 0
 s    8 1.00
                 14710  0.00072067370873197
                  2207  0.0055504869689163
                 502.8   0.028254207662589
                 142.6    0.10639582836653
                 46.47    0.28668420124307
                  16.7    0.44843796582416
                 6.356    0.26464118141135
                 1.316   0.015326060993048
 s    8 1.00
                 14710  -0.00032119389049893
                  2207  -0.0025461915683188
                 502.8  -0.012643359507821
                 142.6   -0.05195749170489
                 46.47   -0.14344713812646
                  16.7   -0.33243762329603
                 6.356   -0.21865906750347
                 1.316     1.0955904138622
 s    1 1.00
                0.3897                   1
 p    3 1.00
                 22.67   0.064834021493887
                 4.977    0.34053535983101
                 1.347    0.73464640679382
 p    1 1.00
                0.3471                   1
 d    1 1.00
                  1.64                   1

7 0
 s    3 1.00
                 13.01   0.033498726389998
                 1.962    0.23480080117413
                0.4446     0.8136829578829
 s    1 1.00
                 0.122                   1
 p    1 1.00
                 0.727                   1

8 0
 s    8 1.00
                 14710  0.00072067370873197
                  2207  0.0055504869689163
                 502.8   0.028254207662589
                 142.6    0.10639582836653
                 46.47    0.28668420124307
                  16.7    0.44843796582416
                 6.356    0.26464118141135
                 1.316   0.015326060993048
 s    8 1.00
                 14710  -0.00032119389049893
                  2207  -0.0025461915683188
                 502.8  -0.012643359507821
                 142.6   -0.05195749170489
                 46.47   -0.14344713812646
                  16.7   -0.33243762329603
                 6.356   -0.21865906750347
                 1.316     1.0955904138622
 s    1 1.00
                0.3897                   1
 p    3 1.00
                 22.67   0.064834021493887
                 4.977    0.34053535983101
                 1.347    0.73464640679382
 p    1 1.00
                0.3471                   1
 d    1 1.00
                  1.64                   1

[5d]
[7f]
[9g]

[MO]
 Sym= A
 Ene=               0
 Spin= Alpha
 Occup=    1.00000
   1       1.0018677565382
   2    -0.00090465871046892
   3    -0.0094099750230482
   4    -0.00014391215491139
   5    -0.0014688950595911
   6    -0.0024642433002765
   7    -0.0016475976297814
   8    -0.0007080078559628
   9    -0.0012132932929743
  10    7.1917288533419e-06
  11    7.9525263935292e-05
  12    -0.00017451626263036
  13    -0.00023517209465059
  14    5.6064083914474e-05
  15    -0.00021356733961155
  16    -0.00084368145113074
  17    0.0029416900096428
  18    0.0010919969344896
  19    -4.9488298626677e-05
  20    5.3251106161276e-05
  21    -0.0010453426128576
  22    -5.2728957124317e-05
  23    -1.1440151196318e-05
  24    8.4420691002091e-05
  25    -5.1239574089992e-05
  26    -1.4975143463232e-05
  27    -0.00019578339771262
  28    -5.4112833180692e-06
  29    0.00016786574228303
  30    0.0003827720292366
  31    -4.4081702503579e-05
  32    3.5009848421928e-06
  33    -6.0975996179061e-05
  34    -1.7790314851868e-06
  35    1.7833888095968e-05
  36    -0.00017769501638016
  37    -0.00011366810839416
  38    1.4601253998335e-05
  39    -1.6733539270801e-05
  40    -0.00021736168982347
  41    -9.6397358963279e-05
  42    -6.1811156340294e-05
  43    -1.076102806805e-05
  44    -2.4409375246919e-06
  45    1.7644143029092e-06
  46    2.7681410135534e-05
  47    -2.3234802381234e-06
  48    -2.7178620660832e-05
  49    4.0190461452061e-06
  50    3.7021588720698e-05
  51    -0.00015817387330736
  52    -3.6791377881649e-05
  53    3.9115789752492e-05
  54    -0.00034583470370876
  55    6.7159885513963e-05
  56    7.7679032694805e-07
  57    -1.0411039172035e-05
  58    2.3049395430909e-07
  59    -8.5798502904171e-06
  60    2.5009793639581e-05
  61    1.683949412127e-06
  62    0.00011994291193215
  63    -0.00014197444773923
  64    -0.0005912779041112
  65    -0.00044816467460288
  66    0.00063890380427373
  67    -0.0010166053237702
  68    -0.00041934388802265
  69    0.0010040170041474
  70    -0.0013726737832457
  71    -0.0001683347072141
  72    -0.00011102921898792
  73    0.00019348472845136
  74    2.1443391852425e-05
  75    7.0189266605284e-05
  76    -0.0031533114010306
  77    0.00075453713311484
  78    2.9863424188494e-05
  79    0.00019075222681737
  80    0.00031468475965355
  81    0.00012963281430333
  82    -0.00012493138714322
  83    -0.00064864034287719
  84    -0.00044874792381579
  85    -0.0012010461637356
  86    5.3559203274103e-05
  87    -0.00043437929479351
  88    -0.0017210992384184
  89    0.00018469235608501
  90    0.00015555369045993
  91    4.2847956378651e-06
  92    -2.1114257995307e-05
  93    0.00021198877319023
  94    -0.00013455600296729
 Sym= A
 Ene=               1
 Spin= Alpha
 Occup=    1.00000
   1    -0.00021356978409832
   2    -0.00084370059193883
   3    0.0029416749961745
   4    -0.0010920330248686
   5    6.9481803999512e-05
   6    2.1386182404837e-05
   7    0.0010453314104491
   8    3.9944438789383e-05
   9    -3.6269626776114e-05
  10    8.3921076106641e-05
  11    4.708147285983e-05
  12    -1.3973123833766e-05
  13    -0.00019607594438179
  14    2.0933114927705e-05
  15       1.0018677556099
  16    -0.00090466357663417
  17    -0.0094099753815278
  18    0.0001439559403111
  19    3.9976816560144e-05
  20    -0.0028685074947797
  21    0.0016476089059483
  22    6.5065702844708e-06
  23    -0.0014047379566624
  24    -7.547262719033e-05
  25    -9.6901614128166e-05
  26    -9.1795480683421e-06
  27    -0.00028290255169299
  28    8.7896212287712e-06
  29    -0.0031532691916373
  30    0.00075455455408943
  31    -2.9864136835318e-05
  32    -7.8539336409126e-06
  33    0.00036789840632809
  34    0.00011994285097235
  35    -0.00014197475365223
  36    -0.00059127717515965
  37    0.00044816220433558
  38    -0.0010616051477139
  39    -0.00056096674668449
  40    0.00041933936158888
  41    -0.0015558375708982
  42    -0.00068677229866711
  43    3.5262040532962e-05
  44    6.1059771006616e-05
  45    -0.00021370800431097
  46    0.00013898970278131
  47    0.0001163008350109
  48    0.00012963282652904
  49    -0.00012493321792067
  50    -0.00064864096600075
  51    0.00044873508219769
  52    0.0010669342479058
  53    -0.00055413850563451
  54    0.00043436747125887
  55    0.0015828737785484
  56    -0.00070060212858469
  57    3.5489137715673e-05
  58    6.3567363886977e-05
  59    0.00021901617958518
  60    0.00014266934974797
  61    -0.00011867187067522
  62    -1.7790270455464e-06
  63    1.7833322767785e-05
  64    -0.0001776919633564
  65    0.00011366898722006
  66    -2.101084781879e-05
  67    -7.1975459367003e-06
  68    0.00021736539367379
  69     5.25770998272e-05
  70    -0.00010173299075548
  71    -1.1395583721623e-05
  72    3.2750696584827e-06
  73    3.0336958681847e-06
  74    2.7314924192662e-05
  75    -7.9138809974138e-07
  76    0.00016787684257906
  77    0.00038277972842964
  78    4.4081241413985e-05
  79    -3.3520530324766e-05
  80    -5.1056766431099e-05
  81    -2.7178660925803e-05
  82    4.0190784075219e-06
  83    3.7022410345114e-05
  84    0.00015819389099988
  85    5.1421598050581e-05
  86    1.5483402295236e-05
  87    0.00034585070496919
  88    -5.777288590086e-05
  89    3.4254549824113e-05
  90    -1.8356550235794e-05
  91    -1.0414845695318e-06
  92    7.3114932913474e-06
  93    2.042230674333e-05
  94    1.3430581335328e-06
 Sym= A
 Ene=               2
 Spin= Alpha
 Occup=    1.00000
   1    6.7699615831047e-05
   2    8.5863620454893e-05
   3    -0.0017222462963846
   4    -0.00012391274830441
   5    6.3345680356272e-06
   6    -2.7039164612463e-05
   7    -0.00087582598580056
   8    -0.00017509345855597
   9    0.00048747775105941
  10    2.298238154785e-05
  11    3.8995424114052e-05
  12    -6.4320720086169e-05
  13    -8.1015385131353e-05
  14    -3.493759624292e-06
  15    -5.0738221449742e-05
  16    3.8409568026044e-05
  17    0.0039623700411056
  18    0.0002601604985028
  19    0.00045807461144291
  20    -0.00027218044704179
  21    -0.00040087232331702
  22    0.0011202543678752
  23    -0.0011100972535933
  24    -9.7670361169327e-07
  25    2.938243867525e-05
  26    5.8220450353635e-05
  27    5.0444432315812e-05
  28    -2.1219782342444e-05
  29    -0.00024094049274047
  30    -8.0343940253675e-05
  31    4.5850684086891e-06
  32    -0.00013575512564782
  33    0.00012225157691759
  34    0.00010497343243639
  35    0.00019371339236578
  36    -0.00075173083274618
  37    3.5976691291544e-06
  38    6.2028047338155e-06
  39    -4.7464958044214e-05
  40    6.3609579144815e-05
  41    -0.0003992093024433
  42    0.00011883756171409
  43    2.1187812996439e-05
  44    -1.1395733428311e-05
  45    -1.7655433315151e-06
  46     2.06711145791e-05
  47    1.3146896094156e-05
  48       1.0010158234279
  49    -0.0041679351902848
  50    -0.011358197260312
  51    -0.0010816647391361
  52    -0.0025162032442819
  53    0.0014799671990404
  54    4.3193713027973e-06
  55     7.80829280135e-05
  56    -4.07438960527e-05
  57    1.4905324477361e-05
  58    5.1682086718724e-05
  59    0.00010043416847837
  60    8.5199793862369e-05
  61    -7.025686762605e-05
  62    -3.2659140962316e-05
  63    -6.0397708847041e-05
  64    0.00027534290116094
  65    1.3822807671747e-05
  66    9.886306172587e-06
  67    -3.6237628088065e-05
  68    -1.6232469640294e-05
  69    -2.6000698275437e-05
  70    7.1156504687826e-05
  71    1.7959876945333e-06
  72    -4.2641030836299e-06
  73    5.1619142499948e-06
  74    -2.3702718715838e-05
  75    -2.1386615685441e-06
  76    0.00010399164155085
  77    -0.00019854962387413
  78    5.7159226854502e-06
  79    1.4172481613278e-05
  80    -3.5339176239541e-05
  81    -2.7820585647316e-05
  82    -4.7026134087889e-05
  83    0.00017619460202774
  84    -1.327181471356e-05
  85    5.9376828511129e-06
  86    1.3680143823773e-05
  87    0.00013826770529296
  88    5.5415182885359e-05
  89    -7.2266880174912e-05
  90    2.9507310119915e-06
  91    -5.2655841288134e-07
  92    -1.5464578779249e-05
  93    -2.4233484102166e-06
  94    -3.1276082553953e-07
 Sym= A
 Ene=               3
 Spin= Alpha
 Occup=    1.00000
   1    -5.0710122645324e-05
   2    3.8531156790699e-05
   3    0.0039624322796978
   4    -0.00026021004271909
   5    -0.00053291543598214
   6    -6.7164575698531e-06
   7    0.00040087140598713
   8    -0.0015251990098681
   9    -0.00040125470127863
  10    3.2137658800331e-05
  11    -1.4833141831785e-05
  12    -7.9805605320234e-06
  13    6.9581834747587e-05
  14    -3.3061539735666e-05
  15    6.7704966924422e-05
  16    8.5884264248513e-05
  17    -0.001722268445349
  18    0.00012389125268323
  19    -1.9017347984302e-05
  20    -2.0249176703383e-05
  21    0.00087583514894311
  22    0.0003953765627335
  23    0.00033462007289398
  24    -1.6336739635234e-05
  25    -3.2019857299215e-05
  26    1.4315487626801e-05
  27    -0.0001037139711631
  28    -2.2513779509773e-05
  29    0.00010399736420649
  30    -0.00019855184625712
  31    -5.7169924836014e-06
  32    -2.9944424068085e-05
  33    -2.3517607960733e-05
  34    -3.2658888535378e-05
  35    -6.0394912241999e-05
  36    0.00027534915404862
  37    -1.3829868489705e-05
  38    -2.6693472623715e-05
  39    -2.6437984781971e-05
  40    1.6230870013005e-05
  41    5.8094574773227e-05
  42    4.8624757220464e-05
  43    1.0126034627328e-05
  44    4.7624190333463e-06
  45    -1.1497001986055e-05
  46    -1.8894095242934e-05
  47    2.7878309313269e-07
  48    -2.7819967403037e-05
  49    -4.7024707705954e-05
  50    0.00017619165021449
  51    1.3276895844784e-05
  52    1.7000677737428e-06
  53    1.4814651956517e-05
  54    -0.00013826224072634
  55    -8.4122414770924e-05
  56    -3.4879272933916e-05
  57    -9.2295294721711e-06
  58    6.1267372564816e-07
  59    8.8964137535536e-06
  60    -9.4556142567235e-06
  61    -7.7061194328274e-09
  62    0.00010497418618906
  63    0.00019370462463356
  64    -0.00075176603811574
  65    -3.5917938813143e-06
  66    -2.9094444890303e-05
  67    -3.8019080689218e-05
  68    -6.3606924478105e-05
  69    0.0004051600446195
  70    -9.6706044638684e-05
  71    7.4423180401795e-06
  72    3.2954735014591e-06
  73    2.5722466824437e-05
  74    1.2734174395569e-05
  75    1.7083112407467e-05
  76    -0.00024094514360676
  77    -8.0386821844577e-05
  78    -4.5904388223759e-06
  79    0.0001786888276012
  80    3.7998212037723e-05
  81       1.0010158015413
  82    -0.0041692571855981
  83    -0.011359727790935
  84    0.0010816061094618
  85    0.0029197965111172
  86    2.3294081445305e-05
  87    -4.3634501214983e-06
  88    -8.7504711716161e-05
  89    3.5500895837836e-06
  90    6.6187897647986e-05
  91    -9.6324156823423e-06
  92    -2.1509318843956e-06
  93    0.00011479870926659
  94    -8.6683233571266e-05
 Sym= A
 Ene=               4
 Spin= Alpha
 Occup=    1.00000
   1    -4.3429812600109e-05
   2    4.7179465733269e-05
   3    0.0037115478107634
   4    -0.00027449464031994
   5    0.00026934332206034
   6    -0.00046467131716475
   7    0.00026715435590896
   8    0.00041739343395147
   9    -0.0015042963848341
  10    -6.1251498305853e-05
  11    -2.8289185025437e-05
  12    5.0829509424242e-05
  13    6.0804023764685e-06
  14    2.5547587502717e-05
  15    6.8724369081277e-05
  16    9.6217458164439e-05
  17    -0.0016048302284966
  18    0.00014758626566163
  19    -9.5928438701687e-06
  20    -1.1938529280987e-05
  21    0.00059207541900292
  22    -8.6423279618317e-05
  23    0.00049869709640993
  24    6.400591620365e-05
  25    -2.0068266493165e-05
  26    -5.6271058255423e-05
  27    -4.5644868352723e-05
  28    1.143414359513e-05
  29    2.998347508239e-05
  30    1.9297448299065e-05
  31    -3.1623292466659e-05
  32    2.6720330523749e-05
  33    -2.2894450860578e-05
  34    -2.2144095761637e-06
  35    5.3715624835697e-07
  36    0.00017019400651148
  37    -4.6144340070782e-05
  38    2.3438378791246e-06
  39    1.2430152860772e-06
  40    8.6936860178796e-05
  41    7.1672402813889e-05
  42    7.5370123750104e-06
  43    4.8589970418701e-06
  44    -5.0235646685785e-06
  45    -3.2256197392691e-07
  46    -1.9460991540488e-05
  47    6.1639536218983e-06
  48    -3.2142329317782e-05
  49    -5.9439459356888e-05
  50    0.00025058640725906
  51    -1.2502374382614e-05
  52    4.1532461577175e-05
  53    -3.4202984616175e-06
  54    2.2440906914065e-05
  55    -0.00011490453413184
  56    -2.7441600583028e-05
  57    1.2252360462069e-05
  58    -1.4909612505186e-06
  59    3.7031591685575e-06
  60    -1.5786075903869e-05
  61    -6.4361440006038e-06
  62       1.0010130575303
  63    -0.0041662458586035
  64    -0.011324716392011
  65    0.0010633556362003
  66    -0.0013798065424636
  67    0.0025751495579094
  68    -3.8094120525268e-06
  69    0.0001215954235815
  70    -2.5310769932682e-05
  71    -8.1688653965908e-05
  72    -7.7184206111854e-05
  73    9.9758949180305e-05
  74    2.6654534450766e-05
  75    3.9694898564377e-05
  76    -0.00022552318954745
  77    -0.00012960362165049
  78    -7.9511139957542e-06
  79    -5.4348100996062e-05
  80    0.0001703074060516
  81    0.00010815001178535
  82    0.00020144443561508
  83    -0.00076610919658338
  84    -6.1903988720335e-06
  85    -1.5574554731949e-05
  86    -4.5935552609646e-05
  87    -6.0262360583241e-05
  88    -0.00028893119204499
  89    0.00030183789295425
  90    1.2172465856335e-05
  91    1.639397759107e-05
  92    2.394353595312e-05
  93    1.5149206855273e-05
  94    -5.7299561387362e-06
 Sym= A
 Ene=               5
 Spin= Alpha
 Occup=    1.00000
   1    6.8725148613782e-05
   2    9.6232569176627e-05
   3    -0.0016047693197262
   4    -0.00014755183228737
   5    2.3393893358352e-06
   6    -1.5135224554089e-05
   7    -0.00059203950197796
   8    0.00032420770112538
   9    0.00038868543146715
  10    7.6821299135974e-06
  11    1.1663048902781e-05
  12    5.637386190387e-05
  13    -7.8162452434396e-05
  14    1.993651890158e-05
  15    -4.3433200487416e-05
  16    4.7166300683418e-05
  17     0.003711525827033
  18    0.00027450415904305
  19    -0.00046557573801312
  20    -0.00026772228668668
  21    -0.0002671162113086
  22    -0.0011136271412976
  23    -0.001094062905571
  24    -1.4877641113765e-06
  25    1.1712836851609e-05
  26    -6.8726076631369e-05
  27    4.060491267213e-05
  28    3.6245129283459e-05
  29    -0.00022553840849899
  30    -0.00012962068700004
  31    7.9484429767564e-06
  32    0.00013222313245909
  33    0.00012031580505366
  34       1.0010130629562
  35    -0.0041659705031602
  36    -0.011324408680393
  37    -0.0010628425552776
  38    0.0024825061191176
  39    0.0015403510026624
  40    4.1641249759551e-06
  41    -0.00011797376921401
  42    3.8952559949512e-05
  43    1.7996347889068e-05
  44    4.7000628560835e-05
  45    -9.9601878549381e-05
  46    8.4201969499224e-05
  47     7.29777502792e-05
  48    0.00010814994745821
  49    0.00020143845116399
  50    -0.00076611493624486
  51    6.2016679777949e-06
  52    -9.4642420628637e-06
  53    -4.758004596946e-05
  54    6.0266654493878e-05
  55    0.00040115253102727
  56    0.00011692686486477
  57    2.228565395586e-05
  58    -1.1332813862652e-05
  59    3.7174900404267e-06
  60    2.0988492389458e-05
  61    -1.3160159608636e-05
  62    -2.2145127827784e-06
  63    5.3688990410577e-07
  64    0.00017019370154776
  65    4.6139785804489e-05
  66    -1.4073721468453e-06
  67    2.2451317982267e-06
  68    -8.6944459146216e-05
  69    -5.8302440356285e-05
  70    4.2359995006254e-05
  71    7.0081146274299e-06
  72    1.2690155411129e-06
  73    -4.6212693384588e-06
  74    -1.8219917006334e-05
  75    7.8499285880495e-06
  76    2.9971655444675e-05
  77    1.9278675663463e-05
  78    3.1625114310349e-05
  79    -3.4587548824464e-05
  80    -6.4662881269814e-06
  81    -3.2142005734543e-05
  82    -5.9434307391458e-05
  83    0.00025059524989344
  84    1.2505128013886e-05
  85    -3.7678784646107e-05
  86    1.7799640635191e-05
  87    -2.2443817104698e-05
  88    8.5791156828047e-05
  89    -8.122143498503e-05
  90    1.3853040607135e-05
  91    4.5098703121757e-06
  92    5.0191078743877e-07
  93    -1.4862767915547e-05
  94    -4.827831073759e-06
 Sym= A
 Ene=               6
 Spin= Alpha
 Occup=    1.00000
   1    -0.0019648293824345
   2    -0.013482524851962
   3    -0.012000646797559
   4     0.019768410206545
   5    -0.015529595316685
   6     0.037675173302635
   7     0.017085011682874
   8    -0.017316064258941
   9     0.045012147931619
  10    0.0027188182471244
  11    -0.0068828465227671
  12    -0.032673864118283
  13    -0.015547403523667
  14    -0.019825149114903
  15    -0.0027601637943808
  16     -0.01839088319731
  17    -0.021398358907897
  18     0.021865539375809
  19    -0.0029706812254298
  20    -0.0012213859931067
  21    0.0083367035930964
  22    -0.016359555504633
  23    -0.012101042243988
  24    -0.00090055245141919
  25    -0.0018379181871315
  26    -0.0009770125891543
  27    -0.0014258056914369
  28    -0.00051475034260581
  29    -0.0031639209399461
  30     0.011106372748195
  31     0.001368693200773
  32    0.00060305579088362
  33    -0.00045167611238857
  34    0.00077120497963417
  35    -0.00065583210392744
  36    -0.011535269584141
  37    0.0021266728520394
  38    0.0028068850068006
  39    -0.0056651383662335
  40     0.001226870754806
  41    -0.00085790725028707
  42    -0.0041074110131309
  43    -5.843868547216e-05
  44    -0.00034447964655771
  45    -0.00037145136181012
  46    0.00028053300285956
  47    0.0006504400946829
  48    -0.00083226387470745
  49     0.001588985578376
  50     0.012167996779506
  51    -0.0067446195509255
  52    -0.0042581343263545
  53     0.004100445736047
  54    -0.0089061917167111
  55    -0.0035113558647171
  56    0.0060032793400198
  57    6.9126312798687e-05
  58    0.00018115142393888
  59    -0.00015934164015781
  60    -0.00025699837189497
  61    -0.00018507464846743
  62    -0.0016949815972472
  63     0.014915616575891
  64     0.051434240036686
  65    0.0035607088071617
  66    -0.029894186383478
  67     0.026354233510575
  68    0.0040354443679636
  69    -0.029252539759582
  70     0.025211472418868
  71    7.349538311419e-05
  72    -0.00038186074503425
  73    -0.00026554973073611
  74    0.00033509027412152
  75    -0.00064897863580906
  76    -0.013093493379046
  77    -0.013384958680552
  78    0.00060389722897855
  79    0.00049453275460941
  80    -0.00095150926546751
  81    -0.00086443991413506
  82    -0.0070889763453276
  83    -0.0042172159528756
  84      0.37705368515582
  85     -0.14228680310842
  86      0.52586095761646
  87      0.26140780022556
  88     -0.09622323738784
  89      0.36265490292149
  90     0.001078985876693
  91    0.0049593256043096
  92     0.011099729205995
  93     0.005978192130281
  94     0.007034099361544
 Sym= A
 Ene=               7
 Spin= Alpha
 Occup=    1.00000
   1    0.0013599349428657
   2     0.022281026365071
   3     0.067091061473975
   4     0.035830890326365
   5    0.00034693534102718
   6    -0.0035794909009779
   7     0.042359269328669
   8    -0.016944892854518
   9    -0.0012294986644295
  10    0.00050864153941658
  11    -0.0022099187559355
  12    0.00071156133874461
  13    0.00096629484359786
  14      0.00095418220639
  15    0.0026598298674269
  16    0.0033517404799965
  17    -0.029373105147725
  18     0.012784210090806
  19    0.0057590528073055
  20     0.012920617734711
  21     0.043755529225843
  22     0.026896323136856
  23     0.013771951298207
  24    -0.025143236643608
  25    -0.0091796855505624
  26     0.018702379476106
  27    0.0075222133825367
  28     0.025752422800606
  29    -0.040311857034826
  30     -0.04617969626993
  31    -0.0022647227732433
  32    -0.0033235201218731
  33    -0.00055863376301641
  34    -0.00095132271470771
  35    0.0013671853545196
  36     0.015740693376035
  37     -0.00480451506135
  38    0.0054864918831255
  39    -0.001268767956593
  40    -0.0076687630517628
  41    0.0050217434616563
  42    0.0014963368871657
  43    -0.00044424386212093
  44    -9.7994454165189e-05
  45    0.0004690468810906
  46    0.00026071725783986
  47    0.00043040517874537
  48    0.0010420386243391
  49    -0.0072759080735766
  50    -0.020703866691807
  51      0.50642512362968
  52     0.060268609290703
  53      0.43384076295327
  54      0.34996728353874
  55     0.044046405071906
  56      0.29716829989988
  57    0.0082556101830159
  58    0.0024332420400139
  59    -0.0066548865499192
  60    -0.0024652767673042
  61    -0.009286868249812
  62    0.0014678617183394
  63    0.0078616109263761
  64    0.0024084033931475
  65     0.011381157727583
  66    0.0047428360366553
  67    -0.00048639564825628
  68    -0.0005932947082878
  69    0.0033536674056777
  70    0.0028047751106069
  71    0.00098737413537359
  72    0.00057221396258619
  73    -0.00022121078315903
  74    -0.0010559057212901
  75    -0.0010223359081069
  76    -0.0024300137872591
  77    -0.0021895389049643
  78    0.00047346288300139
  79     0.001508337697287
  80    -0.00039800720277156
  81    0.00031264556086941
  82    -0.001659526434113
  83    -0.010636740955746
  84    -0.006877816409595
  85    -0.0038894596190777
  86    0.00054309835288517
  87    -0.006306312002373
  88    -0.0052865751606123
  89    -0.00013085808108162
  90    -0.00016023642483709
  91    -8.0988968516857e-05
  92    -7.5558532374816e-05
  93    0.00052736080409653
  94    0.00065371048713262
 Sym= A
 Ene=               8
 Spin= Alpha
 Occup=    1.00000
   1    0.0014326494807954
   2     0.016831848730312
   3     0.039915289112656
   4     0.029431604206781
   5    -0.0022452746356003
   6    -0.0015855769195387
   7       0.0311407250059
   8    0.0017051289953814
   9    0.0095114997272462
  10    -0.00018983647009731
  11    -0.0012943134628501
  12    -0.0006654458123299
  13    -0.00035111008556041
  14    -0.0011100028510818
  15    0.0023249980597293
  16      0.01288050061606
  17    -0.0050995497526599
  18      0.02354608948061
  19     0.031769456904928
  20    -0.022250332891901
  21     0.032613663221382
  22     0.031958309034116
  23    -0.023598543064905
  24     0.015295735027551
  25    -0.017460388379236
  26    0.0085514730123569
  27     0.029138800855313
  28    -0.018198131434391
  29    0.0067277453369189
  30     0.003660886279672
  31    0.00029415716437819
  32    -0.000161974091811
  33    0.00038850008626758