[Molden Format]
made by pyscf v[2.0.1]
[Atoms] (AU)
C   1   6     0.00000000000000     0.00000000000000     0.00000000000000
C   2   6     2.85207482267819     0.00000000000000     0.00000000000000
F   3   9     3.65415199667903     0.00000000000000     2.45977207315200
H   4   1     3.58561868306314    -1.66499644088808    -0.96128614334650
H   5   1     3.58561868306314     1.66499644088808    -0.96128614334650
H   6   1    -0.73354386038494     0.96128614334650     1.66499644088808
F   7   9    -0.80207717400084     1.22988603657600    -2.13022510286915
H   8   1    -0.73354386038494    -1.92257228669300    -0.00000000000000
[GTO]
1 0
 s    8 1.00
                  6665  0.00069158396281299
                  1000  0.0053257961529341
                   228   0.027060721042034
                 64.71    0.10165684614077
                 21.06     0.2745748236174
                 7.495    0.44829431892377
                 2.797    0.28490261071525
                0.5215   0.015194859206082
 s    8 1.00
                  6665  -0.00029326965268655
                  1000  -0.0023180354739745
                   228  -0.011499786038565
                 64.71  -0.046826727009787
                 21.06   -0.12846616875047
                 7.495   -0.30126627246289
                 2.797   -0.25563070233011
                0.5215      1.093793361012
 s    1 1.00
                0.1596                   1
 p    3 1.00
                 9.439   0.056979251590039
                 2.002    0.31320721150073
                0.5456    0.76037674173753
 p    1 1.00
                0.1517                   1
 d    1 1.00
                  0.55                   1

2 0
 s    8 1.00
                  6665  0.00069158396281299
                  1000  0.0053257961529341
                   228   0.027060721042034
                 64.71    0.10165684614077
                 21.06     0.2745748236174
                 7.495    0.44829431892377
                 2.797    0.28490261071525
                0.5215   0.015194859206082
 s    8 1.00
                  6665  -0.00029326965268655
                  1000  -0.0023180354739745
                   228  -0.011499786038565
                 64.71  -0.046826727009787
                 21.06   -0.12846616875047
                 7.495   -0.30126627246289
                 2.797   -0.25563070233011
                0.5215      1.093793361012
 s    1 1.00
                0.1596                   1
 p    3 1.00
                 9.439   0.056979251590039
                 2.002    0.31320721150073
                0.5456    0.76037674173753
 p    1 1.00
                0.1517                   1
 d    1 1.00
                  0.55                   1

3 0
 s    8 1.00
                 14710  0.00072067370873197
                  2207  0.0055504869689163
                 502.8   0.028254207662589
                 142.6    0.10639582836653
                 46.47    0.28668420124307
                  16.7    0.44843796582416
                 6.356    0.26464118141135
                 1.316   0.015326060993048
 s    8 1.00
                 14710  -0.00032119389049893
                  2207  -0.0025461915683188
                 502.8  -0.012643359507821
                 142.6   -0.05195749170489
                 46.47   -0.14344713812646
                  16.7   -0.33243762329603
                 6.356   -0.21865906750347
                 1.316     1.0955904138622
 s    1 1.00
                0.3897                   1
 p    3 1.00
                 22.67   0.064834021493887
                 4.977    0.34053535983101
                 1.347    0.73464640679382
 p    1 1.00
                0.3471                   1
 d    1 1.00
                  1.64                   1

4 0
 s    3 1.00
                 13.01   0.033498726389998
                 1.962    0.23480080117413
                0.4446     0.8136829578829
 s    1 1.00
                 0.122                   1
 p    1 1.00
                 0.727                   1

5 0
 s    3 1.00
                 13.01   0.033498726389998
                 1.962    0.23480080117413
                0.4446     0.8136829578829
 s    1 1.00
                 0.122                   1
 p    1 1.00
                 0.727                   1

6 0
 s    3 1.00
                 13.01   0.033498726389998
                 1.962    0.23480080117413
                0.4446     0.8136829578829
 s    1 1.00
                 0.122                   1
 p    1 1.00
                 0.727                   1

7 0
 s    8 1.00
                 14710  0.00072067370873197
                  2207  0.0055504869689163
                 502.8   0.028254207662589
                 142.6    0.10639582836653
                 46.47    0.28668420124307
                  16.7    0.44843796582416
                 6.356    0.26464118141135
                 1.316   0.015326060993048
 s    8 1.00
                 14710  -0.00032119389049893
                  2207  -0.0025461915683188
                 502.8  -0.012643359507821
                 142.6   -0.05195749170489
                 46.47   -0.14344713812646
                  16.7   -0.33243762329603
                 6.356   -0.21865906750347
                 1.316     1.0955904138622
 s    1 1.00
                0.3897                   1
 p    3 1.00
                 22.67   0.064834021493887
                 4.977    0.34053535983101
                 1.347    0.73464640679382
 p    1 1.00
                0.3471                   1
 d    1 1.00
                  1.64                   1

8 0
 s    3 1.00
                 13.01   0.033498726389998
                 1.962    0.23480080117413
                0.4446     0.8136829578829
 s    1 1.00
                 0.122                   1
 p    1 1.00
                 0.727                   1

[5d]
[7f]
[9g]

[MO]
 Sym= A
 Ene=               0
 Spin= Alpha
 Occup=    1.00000
   1    -0.00018141001955837
   2    0.00010347000078083
   3    0.0027566862224357
   4    0.00037990870469317
   5    7.6213054159397e-06
   6    -4.6757041017576e-06
   7    0.0014043294892965
   8    -5.1334865857043e-05
   9    -0.00017640644046114
  10    2.4050552352628e-05
  11    -0.00010956492424278
  12    -3.0141711497535e-06
  13    -4.3667238277462e-05
  14    -3.7713981295257e-06
  15       1.0021087569844
  16    0.0049134014338879
  17    -0.0085014014958955
  18    0.00033155379953892
  19    -7.6761438773956e-05
  20    0.00076456075725253
  21    0.0011726606684906
  22    -1.0434920347434e-05
  23    0.00048127329345422
  24    0.00010975118972512
  25    -8.4490064797344e-06
  26    2.0562705788237e-05
  27    -0.00012934150592004
  28    -2.5185504614164e-05
  29    0.00016040316934768
  30    0.00067216806007421
  31    3.2536273622117e-05
  32    -9.7820968372727e-05
  33    1.7031869957212e-07
  34    -0.00035413361912513
  35    0.00016423973967693
  36    -3.5687231369707e-06
  37    0.00079198640900204
  38    -0.00018993129339294
  39    -0.00011590947257442
  40    -7.3241678716074e-07
  41    -2.4671758649647e-05
  42    8.9056311642314e-07
  43    0.00061692249476714
  44    0.0013951707761024
  45    -2.8187434462045e-05
  46    -0.00015146433191924
  47    -0.00018338348997219
  48    0.00068058467829409
  49    0.0014156899157811
  50    -5.1376101238537e-05
  51    0.00010774114272505
  52    -0.00015122017945181
  53    -7.4484593875787e-05
  54    0.00033489248389559
  55    0.0001037059026448
  56    -1.0927063787667e-05
  57    -1.7306917522085e-05
  58    -2.1270560896477e-05
  59    -3.3439970171698e-05
  60    -6.8685126042717e-05
  61    -8.3347754185443e-06
  62    6.2089852790979e-06
  63    -9.7060251772581e-06
  64    6.7406541113943e-05
  65    -1.3615265761137e-05
  66    -4.6973525078431e-06
  67    -7.9561817142061e-06
  68    6.0876268352384e-06
  69    -1.2686825623432e-05
  70    2.6710525429612e-05
  71    -5.5281723062248e-06
  72    -9.2126592989683e-05
  73    8.0894472349777e-05
  74    5.8959640555065e-05
  75    3.2963491109929e-05
  76    6.7191510077311e-06
 Sym= A
 Ene=               1
 Spin= Alpha
 Occup=    1.00000
   1       1.0021086588554
   2     0.004915168728705
   3    -0.0085004312374953
   4    -0.00033295753734492
   5    0.00031526031925724
   6    -0.00069933555377921
   7    -0.0011732311184415
   8    0.0002313823752058
   9    -0.00042149421508658
  10    8.1157975207259e-05
  11    5.2182529204241e-06
  12    -3.6507158682052e-05
  13    -0.00014590591006719
  14    2.6087868123711e-05
  15    -0.00018147199765575
  16    0.0001039715819548
  17    0.0027568834923426
  18    -0.00037912687649734
  19    4.8305525538927e-06
  20    7.3909491458766e-06
  21    -0.0014039943295649
  22    -0.00013242237564757
  23    0.00012686216509932
  24    2.6698886386641e-05
  25    -9.3061555497775e-05
  26    2.3550935292252e-06
  27    -4.2118349221825e-05
  28    5.8085745632969e-05
  29    -2.1278736907932e-05
  30    -3.3473301445289e-05
  31    -6.8725964410033e-05
  32    8.3622398905103e-06
  33    4.9905222721056e-07
  34    1.1596957392733e-05
  35    -6.7422129826234e-05
  36    -1.419387910591e-05
  37    -2.6702810976942e-06
  38    -1.2291593638305e-06
  39    8.0268226468709e-06
  40    7.361810727711e-07
  41    3.0585507231217e-05
  42    1.7415319623705e-06
  43    -9.1839711538196e-05
  44    8.0962424802997e-05
  45    -5.894667854975e-05
  46    3.1957581417179e-05
  47    1.0668716492463e-05
  48    -7.3327605140728e-05
  49    0.0003353551243886
  50    -0.00010372508265467
  51    -1.8200052397595e-05
  52    9.561544398179e-06
  53    0.00068247301174841
  54    0.0014161456350218
  55    5.1410880728914e-05
  56    1.7572022435255e-05
  57    0.00018468707853602
  58    0.00016038366804017
  59    0.00067210877108621
  60    3.2452018161982e-05
  61    9.7773406016605e-05
  62    -0.00017684723886022
  63    0.00030664155115666
  64    -0.00016418931719767
  65    0.00039296936659856
  66    -0.00068780936747777
  67    -0.00011279523257446
  68    -0.00010083583652628
  69    0.00015347958400781
  70    1.9839014530222e-05
  71    5.7190777124893e-05
  72    0.00061869795460743
  73    0.0013956498319844
  74    2.8220762358818e-05
  75    -0.00022269130103224
  76    8.3119392484456e-05
 Sym= A
 Ene=               2
 Spin= Alpha
 Occup=    1.00000
   1    -0.00017506494628343
   2    0.00022056529030907
   3     0.003027381505637
   4    -0.00032800022311251
   5    0.00042164996202301
   6    -0.0007343170799737
   7    7.7463152192065e-05
   8    0.00075567309242959
   9    -0.0011918544775136
  10    8.225448388095e-05
  11    8.5784580828061e-05
  12    -0.00012531872661913
  13    -8.2342280482147e-06
  14    -3.3381609613472e-05
  15    3.0536116697822e-05
  16    2.4592231806548e-05
  17    -0.0010070726970867
  18    0.00011139150034981
  19    3.0264114382882e-05
  20    -1.0540537128828e-05
  21    0.00054920952838426
  22    -0.00030934762538028
  23    0.00016003657215779
  24    3.5604567368085e-05
  25    -1.0378335184015e-05
  26    -6.6013122214614e-05
  27    -4.1752433508573e-05
  28    2.3297782566958e-05
  29    -2.4972936827794e-05
  30    -4.3513572307553e-05
  31    0.00013165195698726
  32    1.2906637407855e-05
  33    -2.4418050519012e-06
  34    -1.1358945885469e-05
  35    -0.00014584397941696
  36    3.8539905645769e-05
  37    -2.3324595155007e-05
  38    -1.1290373868468e-06
  39    4.9145588582378e-07
  40    -1.1800120879162e-05
  41    8.1043196386596e-07
  42    -1.3534947857217e-06
  43    6.2896148983935e-05
  44    -0.00017819284678305
  45    1.6842662556298e-05
  46    1.2944878039977e-05
  47    -6.6077595414866e-06
  48    2.7441281414255e-05
  49    9.2088515600206e-05
  50    3.8601774881983e-05
  51    1.0660933354734e-05
  52    1.1722260131666e-05
  53    -0.00025539289714323
  54    -0.00015571753712844
  55    6.9529378055552e-06
  56    -7.859946825862e-05
  57    0.00013739560629356
  58       1.0009658791256
  59    0.0008951001300735
  60    -0.0051287460779572
  61    0.00065393219346188
  62    -0.00092168537038744
  63     0.001738512895562
  64    -0.00022689460626737
  65    0.00037853370503051
  66    -0.0005586053790728
  67    -8.5247759777342e-05
  68    -6.768729268934e-05
  69    0.00011087918985762
  70    2.7243501939852e-05
  71    4.0892355629123e-05
  72    -0.00025270998440155
  73    -8.0300107730844e-05
  74    7.1314060407762e-06
  75    -8.124907545452e-05
  76    0.00013360776928387
 Sym= A
 Ene=               3
 Spin= Alpha
 Occup=    1.00000
   1    3.0493900644371e-05
   2    2.4259509197545e-05
   3    -0.0010096879696067
   4    -0.00011329728898264
   5    2.1503254764325e-05
   6    2.5151400998211e-05
   7    -0.00055024409869379
   8    -0.00018824096223652
   9    -0.00029228777986559
  10    8.0952569300934e-05
  11    -2.0670761802046e-05
  12    2.4400942834181e-05
  13    -1.5716308531812e-05
  14    -1.5039037831444e-05
  15    -0.00017511467131534
  16    0.00021850161313446
  17    0.0030264882971161
  18    0.00032693121276615
  19    -2.2664213112567e-06
  20    0.00084753460387151
  21    -7.9032749354132e-05
  22    5.8592791904328e-05
  23    0.0014099067563025
  24    0.00014785032639977
  25    8.994681983859e-05
  26    4.5555410347139e-06
  27    2.8841764400553e-05
  28    -1.4038297256999e-05
  29       1.0009658145373
  30    0.00089738518008847
  31    -0.005125469866638
  32    -0.00067680425972652
  33    7.1390292154591e-05
  34    -0.0019576983744954
  35    0.00021072638460016
  36    4.8724133635886e-05
  37    0.00067902369479067
  38    -0.00014263591789467
  39    -7.8699583679326e-05
  40    -3.3027377547303e-06
  41    -5.5654949991353e-06
  42    -1.56675605284e-06
  43    -0.00025303955735004
  44    -7.9472743798695e-05
  45    -7.0372282187781e-06
  46    -3.7057490942113e-06
  47    -0.0001563417593107
  48    -0.00025622384080494
  49    -0.00015516600355497
  50    -6.8513808269501e-06
  51    7.7059183930395e-07
  52    -0.00015831589028638
  53    2.8615527682622e-05
  54    9.3482723561442e-05
  55    -3.841699708628e-05
  56    1.5042864503089e-05
  57    -4.8618940919167e-06
  58    -2.5033347361513e-05
  59    -4.3479825286662e-05
  60    0.00013246200612715
  61    -1.2634314851214e-05
  62    -7.9489111315415e-06
  63    8.9406977173191e-06
  64    0.00014614982874671
  65     2.14215579094e-05
  66    3.983629211534e-05
  67    7.9973825711548e-06
  68    1.0816814810362e-06
  69    6.3884098419767e-06
  70    6.0499645464278e-06
  71    9.4208727504681e-07
  72    6.2787117941978e-05
  73    -0.00017812145462413
  74    -1.6933882340772e-05
  75    7.9554380781483e-06
  76    1.2162917262774e-05
 Sym= A
 Ene=               4
 Spin= Alpha
 Occup=    1.00000
   1    3.6211719299269e-05
   2    -0.018293015919865
   3    -0.051502130749611
   4    -0.022556545346966
   5    -0.0090274672522165
   6    -0.0070333065121931
   7    -0.0061878902349601
   8     -0.02624243315826
   9    -0.0076949189508331
  10    0.00065727658116793
  11    -0.00029417918309975
  12    5.8213278222899e-05
  13    -0.00010614407422097
  14    -0.0017224683759466
  15    -0.0010758237100425
  16    -0.0037271039077421
  17    -0.0065234208245018
  18    1.3349573667265e-05
  19    -0.0063507704451933
  20    -0.0042701269660793
  21     -0.01485174871821
  22     0.028686153203062
  23    -0.0060352549797174
  24     0.009321351087858
  25    -0.014883039389654
  26     0.030097983688997
  27    -0.0074536953858418
  28    0.0063320985734638
  29    -0.0010713922550539
  30     0.025619680468098
  31     0.038028035340087
  32     -0.32758282636151
  33      0.56765344569743
  34      0.11841492618462
  35     -0.23263696741352
  36      0.40111737679262
  37     0.081655985772798
  38    -0.0036202012704871
  39    0.0051679685296956
  40    -0.010019387418353
  41    0.0021195092068762
  42    -0.0038322928410308
  43     0.060176229719926
  44     0.060893236125281
  45    0.00045489160425816
  46    -0.00077049267770646
  47    0.0021000668804343
  48    -0.031520040972769
  49     -0.03091732903669
  50    0.0011297959037928
  51    -0.00093718299705091
  52    -0.0011872259734621
  53    -0.0058545982069298
  54     0.036821514325153
  55    0.0035980707147814
  56    0.00038949522622112
  57    0.00074910419430717
  58    -0.00013605378347808
  59     0.002565683841555
  60     0.010542490372533
  61    0.0057976307763544
  62    -0.00062634419896749
  63    0.0060555940895555
  64    0.0027588763001988
  65    -0.00029763017818832
  66    0.0081002409217498
  67    0.00011617811288774
  68    -0.00042738539560733
  69    -0.00014878852776462
  70    -0.0003938456295734
  71    7.804863393452e-05
  72    0.0033389826324787
  73    -0.0076152100567386
  74    -0.00096278969292775
  75    0.00027848939545148
  76    -0.00078145747428074
 Sym= A
 Ene=               5
 Spin= Alpha
 Occup=    1.00000
   1    0.00094609619203921
   2     0.030451260371601
   3     0.073488206510033
   4     0.037339945483651
   5    0.0023341025331135
   6    0.0050437691953875
   7     0.027845922591299
   8    0.0034453629766305
   9    -0.024270768262114
  10    -0.0022977848304499
  11    0.00049140466085497
  12    0.0014639195920461
  13    0.00054173258938699
  14    -0.00086429672464289
  15    0.0021983089233984
  16    0.0016255519836585
  17    -0.012129574209451
  18    -0.00096763888463601
  19    -0.0040551655427162
  20    0.0010955860991094
  21      0.02954934848167
  22     0.013329353517321
  23     0.013517031443148
  24    -0.015162868934561
  25     0.023280498790546
  26     0.019163587956794
  27     0.011781191216694
  28    0.0040008625124631
  29    0.0015611156241629
  30    -0.0021545536498466
  31    -0.015664943076269
  32      0.53967915018037
  33       0.3491225043635
  34     -0.17343704446954
  35      0.38296517464086
  36      0.24797676288893
  37      -0.1202354014234
  38    0.0056605717958872
  39    -0.0087501785244788
  40    -0.006137445618258
  41    -0.0033351695413387
  42    -0.0025546520995566
  43    0.0055856408480369
  44    0.0089716135179125
  45    -0.0018940898841449
  46    -0.00066575881753901
  47    -0.00020410546330461
  48    -0.052010110580651
  49    -0.051275138406788
  50    -0.0010900591323688
  51    -8.3542718587939e-05
  52    -0.0022468461402079
  53      0.01334033735211
  54    -0.0054151635273536
  55    -0.0015155159102064
  56    -0.00018184477063524
  57    -0.0018565458247131
  58    0.0016513138252295
  59    -0.00053898030931802
  60    -0.020784460810471
  61    -0.0054526054601751
  62    0.0051197044862683
  63    -0.0086954208623182
  64    -0.0072899396101328
  65    0.0080908638307174
  66    -0.010423702741279
  67    -0.00010464385079589
  68    0.00045951279136318
  69    0.00024633265946271
  70    0.00026187752028777
  71    -0.0003392484767269
  72    0.00042378856440298
  73    -0.016213140622506
  74    0.0019438500985257
  75    -0.00035622005148872
  76    0.0015755024539442
 Sym= A
 Ene=               6
 Spin= Alpha
 Occup=    1.00000
   1    -0.0022030547406836
   2    -0.0025028635491341
   3     0.010112582482808
   4    -0.00061251820419083
   5    0.0013186420637691
   6    -6.5206334060666e-06
   7     0.032375177092457
   8    -0.013335708076829
   9     0.008446049488704
  10     0.022489525243345
  11    -0.021138905873577
  12    -0.0010587286509506
  13    -0.0098572628495392
  14     0.015157397294657
  15    -0.00090149298684207
  16    -0.033449806510338
  17    -0.082706303380223
  18     0.041289663981907
  19    -0.006946453841278
  20    0.0031640172168601
  21     0.028636728892519
  22    0.0032730799475211
  23    -0.023722246147931
  24    0.0026792653709316
  25    -0.00057630238633822
  26    -0.00084827754121397
  27    -0.00040381110798256
  28    -0.00012902521194998
  29    -0.0016321675238209
  30    0.0011213832834103
  31     0.022648310571844
  32    -0.0066715123007148
  33    0.00045903341874698
  34    -0.011110726960876
  35    -0.0078035899302388
  36    -0.00093306753861354
  37    -0.014327120031818
  38    0.00035978886029298
  39    -0.00064409066932178
  40    0.0001896952105684
  41    -0.00021408634677827
  42    -2.9068778355269e-05
  43    0.0004703604735733
  44     0.014150151320008
  45    0.0020899552358799
  46    -0.00047923812561656
  47    0.0016878629824863
  48    -0.014203934046604
  49     0.012967715016764
  50    -0.0022669068713081
  51     0.001210453426168
  52    -0.0015828291858713
  53     0.041586451133572
  54     0.042396730456724
  55    -0.0014014377895957
  56    0.0010004426375638
  57    -0.0016433440069455
  58    -0.0016801716107346
  59    0.00013317416593977
  60     0.014551660043412
  61      0.60010164721417
  62    -0.092828156480839
  63     -0.27254936744601
  64      0.42577281562307
  65     -0.06792534976708
  66     -0.19085114917419
  67    -0.0075553149679115
  68    0.0076174799190443
  69    0.0011258766288081
  70    0.0029571188388832
  71    -0.0063162346620696
  72    0.0074395057900468
  73    0.0043577184716568
  74    -0.0019585588222363
  75    0.00070785725210243
  76    -0.00043641212671226
 Sym= A
 Ene=               7
 Spin= Alpha
 Occup=    1.00000
   1    -0.0005035725790796
   2    -0.0033195838537668
   3    -0.0090324709564929
   4    0.00030986705413307
   5    -0.004196638360554
   6    0.00088836654172886
   7    0.0081688259690739
   8     0.026635687251742
   9     0.018561018113685
  10    -0.020361317694053
  11    -0.011759601789461
  12    -0.019062373075235
  13    -0.019808586211149
  14    -0.001516219954998
  15    0.00024114039975129
  16    -0.010890331299679
  17     -0.03405044368886
  18     0.014023161947552
  19    -0.0098380932273903
  20    0.00068962491198308
  21    0.00017462096245618
  22     -0.02769585650501
  23    -0.0014858764415729
  24    -0.0001942261523779
  25    0.00071745882649046
  26    -0.00027651648168709
  27    -0.00018730744138021
  28    0.0015190508721213
  29    0.00021967496829106
  30    0.0023569202116105
  31    0.0057034445436185
  32    -0.004422446099547
  33    0.0024406177634963
  34    -0.0031488370527162
  35    -0.0010839016592355
  36     0.004043974986643
  37    -0.0040794862899625
  38    0.00019820258924553
  39    -0.00027741312763474
  40    0.00011855640041954
  41    -0.00026433874647886
  42    0.00015116459473848
  43    0.0037004665213175
  44    -0.010555176001251
  45    0.00050564336342828
  46    -4.1456888140017e-05
  47    0.00046176215698377
  48    -0.0026017324835073
  49     0.034343036273514
  50    -0.0031798764386348
  51    0.00042323458340848
  52    -9.8485320863964e-05
  53    -0.039780534825731
  54    -0.040499761982812
  55    -0.00077687397517528
  56    -0.0016179062995291
  57    0.00082594755179693
  58    -0.00067600274388352
  59     0.021552132986688
  60     0.030130420123075
  61      0.20309501213105
  62      0.58355376069504
  63      0.24955204935585
  64      0.14425345657255
  65      0.41166383541977
  66       0.1776086814285
  67    0.0066782541555165
  68    0.0049054939537724
  69    0.0066975203974089
  70      0.00651011904255
  71    0.0021459484080286
  72     0.056644102936049
  73      0.06006488195097
  74    -0.00016720240742501
  75    4.7890218828198e-05
  76    -0.0021780299453596
 Sym= A
 Ene=               8
 Spin= Alpha
 Occup=    1.00000
   1    -0.0032438884668384
   2      0.13857778310705
   3    -0.017657015103798
   4    -0.090706726498975
   5       0.1379626013339
   6     -0.24006555816969
   7    -0.026146596579984
   8     0.019849922339881
   9    -0.040347987911736
  10     0.030637672589094
  11     0.024788824357877
  12    -0.038980352308057
  13    -0.0055445955687952
  14    -0.015143429085189
  15    -0.00016233494438504
  16    -0.020083185573114
  17     0.012266789885957
  18     0.020969094193752
  19    -0.0054188236026921
  20    -0.0059375830314041
  21    0.0041950569446563
  22    0.0074082322537534
  23    -0.0060272165614999
  24    -0.0010317799667666
  25    0.0090009761453634
  26     0.002903736960217
  27    0.0029335605984263
  28    -0.0057776812307729
  29    0.00043192276648942
  30    0.0042390778654443
  31    0.0080195919987572
  32    -0.0093802401694388
  33    0.00086251897077192
  34     -0.01150268414148
  35    -0.0099058806002933
  36    -0.00099419321743068
  37    -0.0067409116679538
  38    0.00017923204037182
  39    -0.0002657519006192
  40    0.00025967770175621
  41    -0.00027246525951152
  42    7.1498211811267e-05
  43    0.0018352778948142
  44     0.011919033127516
  45    0.0011925544683881
  46    -0.0009396577959123
  47    -0.00037646249816049
  48    -0.013234012576142
  49    -0.022973633429723
  50    0.00092324971070355
  51    -0.00035469172812563
  52    -0.0011044058132579
  53    -0.014508565992998
  54    -0.014450620287033
  55    -0.0012236349505089
  56    0.0036074241092854
  57    -0.0090341934944945
  58    -0.0076107288831527
  59      0.22651517113798
  60      0.21086334310464
  61      0.13505325781178
  62     -0.22154927929424
  63      0.37933621923318
  64     0.088714028767371
  65     -0.14518056625593
  66      0.24833981598173
  67     0.010188053022671
  68    0.0088969559147905
  69    -0.013619250141728
  70    -0.0022189018825183
  71    -0.0052783007876048
  72    -0.016431580617965
  73    -0.021785580611624
  74    -0.0015889987087937
  75    0.0064293964090424
  76    -0.0075699432808764
 Sym= A
 Ene=               9
 Spin= Alpha
 Occup=    1.00000
   1    0.00016171789113289
   2     0.019730958253047
   3    -0.012529799516559
   4     0.021025811878757
   5    0.0068906633209366
   6    -0.0031288110267197
   7    0.0042099075296682
   8    -0.0036871298806377
   9    -0.0091741971774815
  10    0.0034133754405209
  11    -0.010683449278308
  12    0.0019171158747542
  13    -0.0015269846640826
  14    -0.00048466119744239
  15    0.0032077502226375
  16     -0.13772071704878
  17     0.018163234614648
  18    -0.090164935141702
  19    0.00034403212874518
  20     -0.27752554563736
  21    -0.025952398914993
  22    0.0028833609183977
  23    -0.045101970486083
  24    -0.049608505796696
  25    -0.029025081664145
  26    0.0010871777169313
  27    -0.0054454930442401
  28    -0.000687905032185
  29    0.0076055296963404
  30      -0.2265500458594
  31     -0.21090305123465
  32      0.13518823129741
  33    0.0021742233325868
  34      0.43929038268429
  35     0.088770103389071
  36    0.0015611106675368
  37      0.28768970065963
  38    -0.017047671346697
  39    -0.010350648491375
  40    -0.0001262370332117
  41    -0.0017557374755676
  42    -0.00012068993650615
  43     0.017351065377991
  44     0.021930598352882
  45    -0.0016140347919617
  46    -0.0016937257506023
  47    -0.0097389963436863
  48     0.015218511479609
  49     0.014646630485529
  50    -0.0012402129030592
  51    0.0013205316905226
  52    -0.0096069583796541
  53     0.012273382649468
  54     0.022722124272307
  55    0.00088366128863981
  56    0.00088587737741946
  57    -0.00071966358437736
  58    -0.00042989899632385
  59    -0.0042287149981588
  60    -0.0080077726885054
  61    -0.009387520924808
  62    0.0050186996961889
  63    -0.010352465546514
  64    -0.0099229248340224
  65    0.0042903728670533
  66    -0.0052665049231497
  67    1.0304176125712e-05
  68    0.00026360604160842
  69    0.0001407210717146
  70    0.00038508481404994
  71    -7.3794135667083e-05
  72    -0.0013775279227446
  73    -0.011683752238922
  74    0.0012110379547303
  75     0.001013973389982
  76    0.0001271834182331
 Sym= A
 Ene=              10
 Spin= Alpha
 Occup=    1.00000
   1    -0.0067221517830148
   2    -0.068982526136924
   3    -0.029207150239088
   4     0.030593261198583
   5    -0.046338212188913
   6     0.081575578751989
   7    0.0025707369824064
   8    -0.0024353423541548
   9    0.0067475019836773
  10    -0.0028491653887806
  11    -0.001840136602602
  12    0.0055368645124975
  13    0.0012785090233626
  14    0.0018207844050987
  15    -7.1078926221889e-05
  16    -7.2071204147589e-05
  17    -0.00057022518828267
  18    -0.0021956655678678
  19    -0.0038119384023106
  20    0.0074136835663132
  21    -0.011417153977321
  22    -0.011852448670067
  23    0.0060011985114463
  24    0.00042995851155256
  25    -0.003812050693216
  26    -9.5210548265561e-05
  27    -0.00091989446766988
  28    0.0020875736740554
  29    -0.00037007395479791
  30    -0.0017708210059971
  31    -0.0026365075282813
  32    0.0034256392871326
  33    0.00037994092355561
  34    0.0014479118774914
  35    0.0034196901575792
  36    0.0015463149589094
  37    0.00029041455583892
  38    1.8104951524558e-05
  39    0.00019083361904305
  40    -4.8198907174495e-06
  41    0.00017428044088128
  42    2.4097989731614e-05
  43    -0.0012375345579886
  44    -0.005293488333551
  45    0.00029227793951826
  46    6.2930111312385e-05
  47    0.00013216901609883
  48    -0.00088064805256669
  49     0.019704992847439
  50    -0.00045621211133573
  51    -0.00015986785384187
  52    0.00027346333277651
  53    -0.00016416476399717
  54     0.014910360715224
  55    0.0013105275450962
  56    -0.0021479995198072
  57    0.0033829201646475
  58    -0.0018226982727823
  59      0.43798911566848
  60      0.52303926317717
  61     -0.10979008795641
  62      0.12547586334314
  63     -0.27482625645411
  64    -0.075287810075527
  65     0.086172750671751
  66     -0.19083659943959
  67    -0.0045937840273927
  68    -0.0039979600287776
  69    0.0053904307556481
  70    0.00070660569502281
  71    0.0020972798800451
  72    -0.0045245689853327
  73     0.013280097006163
  74    0.0012362979571904
  75    -0.0020956594002641
  76    0.0036831568782307
 Sym= A
 Ene=              11
 Spin= Alpha
 Occup=    1.00000
   1    -5.3161410243336e-05
   2    0.00029950206546966
   3    0.00090563887083889
   4     0.003101133781508
   5    0.00038866496058435