[Molden Format]
made by pyscf v[2.0.1]
[Atoms] (AU)
C   1   6     0.00000000000000     0.00000000000000     0.00000000000000
C   2   6     2.85207482267819     0.00000000000000     0.00000000000000
F   3   9     3.65415199667903     0.00000000000000     2.45977207315200
H   4   1     3.58561868306314    -1.66499644088808    -0.96128614334650
H   5   1     3.58561868306314     1.66499644088808    -0.96128614334650
H   6   1    -0.73354386038494     1.47277581671572     1.23580564461298
F   7   9    -0.80207717400084     0.42713493797885    -2.42240260828301
H   8   1    -0.73354386038494    -1.80662699073290     0.65755844904870
[GTO]
1 0
 s    8 1.00
                  6665  0.00069158396281299
                  1000  0.0053257961529341
                   228   0.027060721042034
                 64.71    0.10165684614077
                 21.06     0.2745748236174
                 7.495    0.44829431892377
                 2.797    0.28490261071525
                0.5215   0.015194859206082
 s    8 1.00
                  6665  -0.00029326965268655
                  1000  -0.0023180354739745
                   228  -0.011499786038565
                 64.71  -0.046826727009787
                 21.06   -0.12846616875047
                 7.495   -0.30126627246289
                 2.797   -0.25563070233011
                0.5215      1.093793361012
 s    1 1.00
                0.1596                   1
 p    3 1.00
                 9.439   0.056979251590039
                 2.002    0.31320721150073
                0.5456    0.76037674173753
 p    1 1.00
                0.1517                   1
 d    1 1.00
                  0.55                   1

2 0
 s    8 1.00
                  6665  0.00069158396281299
                  1000  0.0053257961529341
                   228   0.027060721042034
                 64.71    0.10165684614077
                 21.06     0.2745748236174
                 7.495    0.44829431892377
                 2.797    0.28490261071525
                0.5215   0.015194859206082
 s    8 1.00
                  6665  -0.00029326965268655
                  1000  -0.0023180354739745
                   228  -0.011499786038565
                 64.71  -0.046826727009787
                 21.06   -0.12846616875047
                 7.495   -0.30126627246289
                 2.797   -0.25563070233011
                0.5215      1.093793361012
 s    1 1.00
                0.1596                   1
 p    3 1.00
                 9.439   0.056979251590039
                 2.002    0.31320721150073
                0.5456    0.76037674173753
 p    1 1.00
                0.1517                   1
 d    1 1.00
                  0.55                   1

3 0
 s    8 1.00
                 14710  0.00072067370873197
                  2207  0.0055504869689163
                 502.8   0.028254207662589
                 142.6    0.10639582836653
                 46.47    0.28668420124307
                  16.7    0.44843796582416
                 6.356    0.26464118141135
                 1.316   0.015326060993048
 s    8 1.00
                 14710  -0.00032119389049893
                  2207  -0.0025461915683188
                 502.8  -0.012643359507821
                 142.6   -0.05195749170489
                 46.47   -0.14344713812646
                  16.7   -0.33243762329603
                 6.356   -0.21865906750347
                 1.316     1.0955904138622
 s    1 1.00
                0.3897                   1
 p    3 1.00
                 22.67   0.064834021493887
                 4.977    0.34053535983101
                 1.347    0.73464640679382
 p    1 1.00
                0.3471                   1
 d    1 1.00
                  1.64                   1

4 0
 s    3 1.00
                 13.01   0.033498726389998
                 1.962    0.23480080117413
                0.4446     0.8136829578829
 s    1 1.00
                 0.122                   1
 p    1 1.00
                 0.727                   1

5 0
 s    3 1.00
                 13.01   0.033498726389998
                 1.962    0.23480080117413
                0.4446     0.8136829578829
 s    1 1.00
                 0.122                   1
 p    1 1.00
                 0.727                   1

6 0
 s    3 1.00
                 13.01   0.033498726389998
                 1.962    0.23480080117413
                0.4446     0.8136829578829
 s    1 1.00
                 0.122                   1
 p    1 1.00
                 0.727                   1

7 0
 s    8 1.00
                 14710  0.00072067370873197
                  2207  0.0055504869689163
                 502.8   0.028254207662589
                 142.6    0.10639582836653
                 46.47    0.28668420124307
                  16.7    0.44843796582416
                 6.356    0.26464118141135
                 1.316   0.015326060993048
 s    8 1.00
                 14710  -0.00032119389049893
                  2207  -0.0025461915683188
                 502.8  -0.012643359507821
                 142.6   -0.05195749170489
                 46.47   -0.14344713812646
                  16.7   -0.33243762329603
                 6.356   -0.21865906750347
                 1.316     1.0955904138622
 s    1 1.00
                0.3897                   1
 p    3 1.00
                 22.67   0.064834021493887
                 4.977    0.34053535983101
                 1.347    0.73464640679382
 p    1 1.00
                0.3471                   1
 d    1 1.00
                  1.64                   1

8 0
 s    3 1.00
                 13.01   0.033498726389998
                 1.962    0.23480080117413
                0.4446     0.8136829578829
 s    1 1.00
                 0.122                   1
 p    1 1.00
                 0.727                   1

[5d]
[7f]
[9g]

[MO]
 Sym= A
 Ene=               0
 Spin= Alpha
 Occup=    1.00000
   1    -0.00017237914984093
   2    0.00011988180923883
   3    0.0026891253845049
   4    0.00038033890580757
   5    2.7568498016912e-06
   6    -8.6746738712964e-06
   7     0.001388228541252
   8    -2.6650046201491e-05
   9    -0.00011631954979724
  10    2.1264071828354e-05
  11    -0.00010493185828889
  12    -1.5889545645589e-06
  13    -3.9003284903325e-05
  14    -1.7534055474016e-06
  15        1.002103095149
  16    0.0048979446519223
  17    -0.0084548092690463
  18    0.0003314680960666
  19    -2.9691677032907e-05
  20    0.00077408753601652
  21    0.0011705764464953
  22    -4.2453451495093e-06
  23    0.00046582588425367
  24    0.00011196683012299
  25    -1.7271573343595e-06
  26    8.705608921568e-06
  27    -0.00012433288738123
  28    -1.044623675883e-05
  29    0.00016009759096954
  30    0.00067186143889447
  31    3.2602212838202e-05
  32    -9.7353033190512e-05
  33    1.9426949752027e-07
  34    -0.00035509277484451
  35    0.00015948160904751
  36    -2.1488846685697e-06
  37    0.00080028151531116
  38    -0.00019142230563076
  39    -0.00011594596001706
  40    -2.0470961074688e-07
  41    -2.4416281316124e-05
  42    4.2226086808299e-07
  43    0.00063840721092151
  44    0.0013891229989732
  45    -3.856355950971e-05
  46    -0.00013694440565675
  47    -0.00017348900832752
  48    0.00066420793859496
  49    0.0013992501943684
  50    -4.8334516193759e-05
  51    0.0001199434238809
  52    -0.00016034770957249
  53    -7.8047350422427e-05
  54    0.00026536583594409
  55    9.2767435260275e-05
  56    -2.0259210389775e-05
  57    -1.4483495784202e-05
  58    -2.9831520529208e-05
  59    -4.9123197645351e-05
  60    -2.1136627270346e-05
  61    -1.1300181469169e-05
  62    2.4012754514617e-06
  63    -1.0311590693896e-05
  64    9.2525727116382e-05
  65    -8.6236738780196e-06
  66    1.6198078833188e-06
  67    -1.5612384143636e-06
  68    7.8199080486026e-06
  69    -5.6354379810269e-06
  70    3.1775312709933e-05
  71    -2.3156730495419e-06
  72    -8.5107412043588e-05
  73    0.00017331157897849
  74    7.6168370430816e-05
  75    2.8068247062725e-05
  76    -5.8243703538403e-06
 Sym= A
 Ene=               1
 Spin= Alpha
 Occup=    1.00000
   1       1.0021029973011
   2    0.0048997170569259
   3    -0.0084538414602509
   4    -0.00033287031072998
   5    0.00010500963474618
   6    -0.0007661831378318
   7    -0.0011711407855381
   8    7.6644449779091e-05
   9    -0.00045892941759179
  10    0.00010751419752567
  11    5.0221067181652e-08
  12    -2.0048786453566e-05
  13    -0.00012695931573692
  14    1.0604808485398e-05
  15    -0.00017244184256132
  16    0.0001203754902653
  17    0.0026893194031141
  18    -0.00037956378595234
  19    1.3978091579199e-06
  20    8.5671663072863e-06
  21    -0.0013879020936925
  22    -4.6363996569108e-05
  23    0.00010968431902925
  24    2.1740963849401e-05
  25    -0.00010309956045796
  26    1.8577017494927e-06
  27    -3.8708219306154e-05
  28    1.9959646311805e-05
  29    -2.9839617741723e-05
  30    -4.9156767251575e-05
  31    -2.1181749859632e-05
  32    1.1320216974546e-05
  33    5.6525666699355e-07
  34    1.066325248893e-05
  35    -9.254278654103e-05
  36    -8.2297395383505e-06
  37    -3.021307243677e-06
  38    -6.3959427439925e-07
  39    8.0942831772084e-06
  40     3.21345617049e-07
  41    3.2298043221696e-05
  42    9.2174573078985e-07
  43    -8.4538530556556e-05
  44    0.00017351622338037
  45    -7.6165586196667e-05
  46    2.669078191873e-05
  47    1.0625734940082e-05
  48    -7.7190939288702e-05
  49    0.00026569860077577
  50    -9.2774992220692e-05
  51    -2.2537913785285e-05
  52    1.0771424948305e-05
  53    0.00066607524157724
  54    0.0013997137514165
  55    4.8370033207012e-05
  56    9.011326755794e-05
  57    0.00017864911937665
  58    0.00016008843731258
  59    0.00067180459879714
  60    3.2527478224314e-05
  61    9.7297597760441e-05
  62    -6.1458199303937e-05
  63    0.00034958216398194
  64    -0.00015943549191934
  65    0.00013686295878154
  66    -0.00078865474520513
  67    -0.0001820372467411
  68    -0.00011427017092331
  69    6.1059812081556e-05
  70    -1.9022809218655e-05
  71    1.9720652331457e-05
  72    0.0006402092860765
  73    0.0013895886723536
  74    3.8598003056883e-05
  75    -0.00016481096675932
  76    0.00014704733208138
 Sym= A
 Ene=               2
 Spin= Alpha
 Occup=    1.00000
   1    2.050144618224e-05
   2    8.4465540836701e-06
   3    -0.00091526837328972
   4    -0.00011085651914869
   5    9.5113408021978e-06
   6    1.5964392456703e-05
   7    -0.00059395906118509
   8    -8.8802012615966e-05
   9    -0.00016711787658377
  10    7.1323331580447e-05
  11    -1.3576615612369e-05
  12    1.2398312865608e-05
  13    -3.9467760421338e-05
  14    -6.1412359637434e-06
  15    -0.00017412350987872
  16    0.0002249328547955
  17    0.0030369773045287
  18     0.000326139795966
  19    -1.2815015327485e-06
  20    0.0008552771429563
  21    -9.425122576307e-05
  22    2.7130565761021e-05
  23    0.0014076301454435
  24    0.00014813892208094
  25    0.0001047958779291
  26    3.2797759331102e-06
  27    3.6401211330041e-05
  28    -6.3246472093565e-06
  29       1.0009669065889
  30    0.0008620022943311
  31    -0.0051756160128692
  32    -0.00065092239519461
  33    5.2071702516988e-05
  34    -0.0020002195051279
  35    0.00024322044642735
  36    3.6046468003039e-05
  37    0.00066134740230195
  38    -0.00014167112849252
  39    -8.0552580382927e-05
  40    -1.8614732321947e-06
  41    -7.1843460033827e-06
  42    -8.919371876948e-07
  43    -0.00024889681683704
  44    -9.1470402900589e-05
  45    -9.4039484786273e-06
  46    1.5158620715374e-06
  47    -0.00015623215199982
  48    -0.00025275648989777
  49    -0.00012866823789249
  50    -9.9373409682809e-06
  51    -2.8535861206635e-06
  52    -0.00015723730152409
  53    2.1472873587956e-05
  54    -4.0077367784022e-05
  55    -4.7716882685408e-05
  56    1.6758906576439e-05
  57    -1.1257421774415e-05
  58    -2.9602693357108e-05
  59    -5.3301951498275e-05
  60    0.00013562529886503
  61    -2.2007695081872e-05
  62    -2.7379342598789e-06
  63    9.5324890933427e-06
  64    0.00017391181615974
  65    1.3057932759461e-05
  66    1.7743597201456e-05
  67    -3.1178302421951e-06
  68    -1.4168444151499e-06
  69    5.478166425474e-06
  70    2.3135932257237e-06
  71    9.8454023947315e-07
  72    3.568194213662e-05
  73    -0.0001506759508204
  74    -3.992152939801e-05
  75    -5.5867796576018e-06
  76    -8.8264562325743e-06
 Sym= A
 Ene=               3
 Spin= Alpha
 Occup=    1.00000
   1    -0.00017416932905586
   2    0.00022661546188953
   3     0.003037874666314
   4    -0.00032707695244168
   5    0.00014732578391849
   6    -0.00084085756389791
   7    9.3012173929757e-05
   8    0.00026999187328645
   9    -0.0013816511189039
  10    0.0001393393452902
  11    0.00010504651481487
  12    -5.1959987147415e-05
  13    3.1894262566888e-05
  14    -1.189018206485e-05
  15    2.0535123739046e-05
  16    8.4385131655198e-06
  17    -0.00091353879958936
  18    0.00010938041386503
  19    1.2061673464256e-05
  20    -1.3469021432301e-05
  21    0.00059318026788708
  22    -0.00011530686606867
  23    0.00015011736981256
  24    6.5375732769526e-05
  25    -1.2351771752678e-05
  26    -2.5988101622684e-05
  27    -4.2782654373651e-05
  28    8.3347794202016e-06
  29    -2.955943605077e-05
  30    -5.3339765715448e-05
  31    0.00013495346665794
  32    2.2256347258526e-05
  33    -1.149847318257e-06
  34    -9.5805961075632e-06
  35    -0.00017365690076012
  36    1.576996827027e-05
  37    -1.485907665378e-05
  38    -4.6824598458593e-06
  39    -1.5451026239085e-06
  40    -4.6168498126871e-06
  41    1.4382378446863e-06
  42    -7.2879737473127e-07
  43    3.5352279844883e-05
  44    -0.0001500028505282
  45    3.9872996654529e-05
  46    -7.0715870707044e-06
  47    7.6857952574127e-06
  48    2.064393947078e-05
  49    -4.1799230218965e-05
  50    4.7871029254084e-05
  51    1.463578574098e-05
  52    1.3968107578367e-05
  53    -0.00024989145181031
  54    -0.00012706986682077
  55    1.0047876963495e-05
  56    -3.0225913925231e-05
  57    0.00015426124883739
  58       1.0009669383672
  59    0.00086331427427582
  60    -0.0051744962366512
  61    0.00063343906975512
  62    -0.00031845239986319
  63    0.0019793080203013
  64    -0.00025554022303585
  65    0.00013455158562532
  66    -0.0006448684815873
  67    -0.00013446315562143
  68    -7.9495757434186e-05
  69    4.454479593142e-05
  70    -3.2481137133442e-06
  71    1.4769424149812e-05
  72    -0.00024976227619787
  73    -9.3623663556935e-05
  74    9.4830133554932e-06
  75    -2.5452681253029e-05
  76    0.00015422027782677
 Sym= A
 Ene=               4
 Spin= Alpha
 Occup=    1.00000
   1    -0.00017138516961183
   2    -0.011948234721386
   3    -0.031070048628608
   4     -0.01432226567397
   5    -0.0093570043079707
   6    -0.0028033199164187
   7    -0.0058758796225859
   8    -0.038182630132449
   9    0.00083372861617195
  10    0.00076249362342583
  11    -0.00012872511055139
  12    7.2537355276589e-05
  13    9.170138421629e-06
  14    -0.0016314021169584
  15    -0.00080616347184386
  16    -0.0024869246306016
  17    -0.0015928298975841
  18    -0.00014252159920771
  19    -0.0068563903081893
  20    -0.0029589193671741
  21    -0.0098271061434399
  22      0.03349422875884
  23    -0.0051681813086563
  24    0.0058939777697235
  25    -0.0094339605444884
  26     0.033549916314608
  27    -0.0046631267522722
  28    0.0065919465028595
  29    -0.0007483772431264
  30     0.015336067574549
  31     0.023649006650424
  32     -0.20877027856949
  33      0.62858270167598
  34     0.076405130523751
  35     -0.14829673135658
  36      0.44381278927433
  37     0.052667211160172
  38    -0.0023735248270736
  39    0.0032964274775323
  40    -0.011103261884598
  41    0.0013677335665775
  42    -0.0043503681021645
  43     0.059595906652703
  44     0.061069977542384
  45    0.00016659054119663
  46    -0.00098746997406856
  47    0.0021850361723259
  48    -0.041380672894674
  49    -0.042820243314233
  50    0.00087080528517868
  51    -0.0011159386011294
  52    -0.0014840776164984
  53    -0.0030679909524294
  54     0.037523072293566
  55    0.0026692636790099
  56    -0.00025699332814835
  57    7.3861015665456e-05
  58    -0.0003628520861861
  59    0.0011620294479149
  60    0.0082503979093647
  61    0.0034327451937051
  62    0.0024117470206659
  63    0.0044320806484241
  64    0.0022864492035282
  65    0.0048550300721548
  66    0.0060353474013948
  67    0.00013456813464472
  68    -0.000276468074839
  69    -9.4700637191446e-05
  70    -0.00017328005804667
  71    -0.00014126418297951
  72    -0.0008309970722779
  73    -0.022646911228712
  74    -0.0015078404803172
  75    -0.0005291964877091
  76    -0.00041145041761872
 Sym= A
 Ene=               5
 Spin= Alpha
 Occup=    1.00000
   1    -0.00014875202341352
   2    -0.001201594981616
   3    -0.0034901490744343
   4    0.00014757832647583
   5    -0.0033229600235324
   6    0.00055055589621453
   7    0.0024518994836772
   8      0.03578910750756
   9    0.0070290379442561
  10    -0.0086123055426048
  11    -0.004262541072143
  12    -0.033465447841107
  13    -0.0075358988733326
  14    -0.0064761467563681
  15    0.00016953861255756
  16    -0.0033959937940276
  17    -0.011789844772573
  18    0.0043821922386926
  19    -0.0089920238030779
  20    0.00028775390231528
  21    -0.0005286800901246
  22    -0.038561290584305
  23    -0.00042892479656415
  24    -0.00011111414956234
  25    0.00026238242432217
  26    -0.00019608016392841
  27    8.3862535404561e-06
  28    0.0014813225027644
  29    7.3761202546531e-05
  30    0.00084048518335547
  31    0.0020840107994737
  32    -0.0015916900626645
  33    0.0031968425327499
  34    -0.0010717376851031
  35    -0.00034863166187958
  36    0.0060300439502987
  37    -0.0014214222152086
  38    7.1964506667985e-05
  39    -8.7369015435995e-05
  40    6.1249027783955e-05
  41    -9.3874871918442e-05
  42    0.00018926395124297
  43    0.00077559783523914
  44    -0.026291751930966
  45    0.0013740721479536
  46    -0.00052235511471462
  47    8.3250288124087e-05
  48    -0.0002234319167234
  49     0.034946843838622
  50    -0.0025175773979717
  51    -0.00043812039010809
  52    -1.8564443656568e-05
  53    -0.047757128136557
  54    -0.050694631962395
  55    -0.00041889012566612
  56    -0.0014724790181572
  57    0.0015461598754224
  58    -0.00022619810823335
  59    0.0082878532303134
  60     0.011266050957606
  61     0.064494311774261
  62      0.65766957486186
  63     0.090835018076506
  64     0.045835344626704
  65      0.46413064446097
  66     0.064601052743201
  67    0.0027815962727556
  68    0.0017875445553884
  69      0.01120900233052
  70    0.0024710088215693
  71    0.0043802933247599
  72     0.053084441504653
  73     0.057101595851264
  74    0.00013112215424779
  75    -0.0008753729743888
  76    -0.0020511208119854
 Sym= A
 Ene=               6
 Spin= Alpha
 Occup=    1.00000
   1    0.0014101933559867
   2     0.034502256320138
   3     0.078287845005757
   4      0.04100001977648
   5    -0.00030809776246493
   6    0.0027309198735846
   7     0.027534995307557
   8    -0.0052832334388569
   9    -0.030951107227105
  10    -0.0032921730859091
  11    0.00022195510966808
  12    0.00074771255210916
  13    0.00012322381277671
  14    -0.00049843143099255
  15    0.0022104490642124
  16    0.0012133462704733
  17    -0.0099394769616818
  18    -0.0016777071052346
  19    -0.002467545733779
  20    0.00036269823047531
  21     0.030283982032821
  22     0.010240000599965
  23     0.017611275014578
  24    -0.016844854094526
  25      0.02580400124376
  26     0.012138488406168
  27     0.012932705169963
  28    0.0024137348613512
  29    0.0018582379586953
  30    0.0019192883759455
  31    -0.013922918635687
  32      0.59763257283751
  33      0.22264051435828
  34     -0.19011539781657
  35      0.42419404245259
  36      0.15768989693333
  37     -0.13133065964997
  38    0.0062469761394772
  39    -0.0097145352520515
  40    -0.0039252281526374
  41    -0.0038268461729694
  42    -0.0016169783748797
  43    -0.0076099227423049
  44    -0.0037522697854653
  45    -0.0018609534684876
  46    -0.00056991197023936
  47    -0.00086512870068936
  48    -0.043880313695763
  49    -0.042207786098437
  50    -0.0014369516370617
  51    -3.6195615761064e-05
  52    -0.0021763320507963
  53      0.01116340937603
  54    -0.0042963138416702
  55    -0.00032024555620861
  56    -0.00066496677338637
  57    -0.00049038236793176
  58    0.0018047681212173
  59    -0.001291061573835
  60    -0.025371073369376
  61    -0.0075626058250865
  62    0.0026923857338516
  63    -0.011464728101234
  64    -0.0081467223911807
  65     0.004435719780042
  66    -0.014460211927686
  67    -0.00033680126921364
  68    0.00064732604728673
  69    0.00011176546727321
  70    0.00027595277177779
  71    -0.00017528186891145
  72    0.0063251977615639
  73    -0.019704111681708
  74    0.0003437871328378
  75    0.00014721606546373
  76    0.00092200978469828
 Sym= A
 Ene=               7
 Spin= Alpha
 Occup=    1.00000
   1    -0.0021959067719345
   2    -0.0023514419648301
   3    0.0088030686245711
   4    -0.0010065431531334
   5    0.00051781489103026
   6    -0.0010573070929285
   7     0.032086970148666
   8    -0.0053351504367867
   9     0.017140914528814
  10     0.018581180137063
  11    -0.026670694500178
  12    0.00069513007426596
  13    -0.013169422547037
  14    0.0055261711076934
  15    -0.0013873728093815
  16     -0.03612046131777
  17    -0.083206230814751
  18     0.043070612109211
  19    -0.002469705477392
  20    0.0027348004991085
  21      0.02817972838187
  22    0.0015102322462711
  23    -0.030540038080575
  24      0.00345181573594
  25    -0.00016913735719696
  26    -0.00031740932101611
  27    -9.7560152113704e-05
  28    -5.0356770495441e-05
  29    -0.0018337360713203
  30    0.0015468898330369
  31     0.026630064452412
  32    -0.0082025874886792
  33    9.7028582786044e-05
  34    -0.012390181554087
  35    -0.0085026089457785
  36    -0.00043679694409446
  37    -0.015791547016715
  38    0.00038953212806579
  39    -0.00070654626896121
  40    6.9878112631596e-05
  41    -0.0002940707466701
  42    -1.3870950086585e-05
  43    -0.0062638050666906
  44     0.013727836962426
  45    0.00067369273624212
  46    -0.00042505338393421
  47    0.00093086029275425
  48    -0.011516659606492
  49     0.012809468920208
  50    -0.00094917302468072
  51    0.00065966405905714
  52    -0.00038744100337805
  53     0.031236365411457
  54     0.030374578452268
  55    -0.0016604269844938
  56    0.00022638528419542
  57    -0.0017448701610715
  58    -0.0019265933739061
  59    -0.003212618332936
  60     0.013158570388123
  61      0.63114715585858
  62    -0.033250059984554
  63     -0.20792820589924
  64      0.44791050725251
  65    -0.024458268448064
  66      -0.1438223846497
  67    -0.006733412140143
  68     0.010025856027595
  69    0.00010786812729021
  70    0.0039574532499358
  71    -0.002328659403201
  72     0.020338679690123
  73     0.017613339998707
  74    -0.0018810584074442
  75    0.00043649359915176
  76    -0.0013158992870369
 Sym= A
 Ene=               8
 Spin= Alpha
 Occup=    1.00000
   1    -0.0032916527305974
   2      0.13853898090878
   3    -0.017821211131677
   4    -0.090662024563806
   5     0.047756867632942
   6     -0.27250483068512
   7    -0.026040495394811
   8    0.0064683130654622
   9    -0.044240326250129
  10     0.047661514598266
  11     0.028076049708826
  12    -0.015280556848741
  13    0.0041684489148626
  14    -0.0052498184203879
  15    0.00015749146187142
  16     -0.02028876548457
  17    0.0088684359226887
  18     0.020654660039577
  19    -0.0019170262397764
  20    -0.0068028608154177
  21     0.003081202226452
  22    0.0028813998468106
  23    -0.0065211397444383
  24    -0.0018939731071922
  25     0.010255524866043
  26    0.0011178535472635
  27    0.0026067610441063
  28    -0.0020115843837246
  29    0.00034140584472769
  30    0.0043861856878112
  31      0.00985276227744
  32    -0.010119062532478
  33    0.00032424880368458
  34    -0.013039837634824
  35    -0.010360658886905
  36    -0.00043286701411087
  37    -0.0080677362772109
  38    0.00022301757295139
  39    -0.00018253464887057
  40    9.7005973133908e-05
  41    -0.00023308509335412
  42    3.0592671723105e-05
  43    -0.0040510854698647
  44    0.0015680904095145
  45    0.0010376882020996
  46    -0.00028815919173473
  47    -0.0010201329714258
  48    -0.0091067524359673
  49    -0.011091038934888
  50    0.00086962114857498
  51    -0.00016794511140774
  52    -0.0012939800841399
  53     -0.01495754318509
  54    -0.016334497691616
  55    -0.0013818692340822
  56    0.00015882435183982
  57    -0.0097814730613284
  58    -0.0076532122380492
  59      0.22657883647224
  60      0.21092020012442
  61       0.1363443707965
  62    -0.077184605107505
  63       0.4318219514563
  64     0.089696107990569
  65    -0.050570360413322
  66      0.28268294252944
  67     0.016192543309534
  68     0.010233273537731
  69    -0.0054081533049807
  70    0.0013302012266712
  71    -0.0018587532582413
  72    -0.015685334532311
  73     -0.01921406854633
  74    -0.0015202994248839
  75    0.0033696163437253
  76    -0.009286049423628
 Sym= A
 Ene=               9
 Spin= Alpha
 Occup=    1.00000
   1    -0.00015411344079392
   2     0.019848929412451
   3    -0.0091521908910033
   4     0.020768939451847
   5    0.0027803632345196
   6    -0.0067094025341942
   7    0.0031191796125784
   8    -0.0018116146777031
   9    -0.0070405545148683
  10    0.0021987161731942
  11    -0.010459162428608
  12    0.00091609575713678
  13    -0.0023959617245515
  14    -0.0001928936100819
  15    0.0032590104881025
  16     -0.13766641394422
  17     0.018333375139539
  18     -0.09012357064879
  19    0.00021205195503988
  20     -0.27727959737317
  21    -0.025827859240931
  22     0.001272139943229
  23    -0.044929585202208
  24    -0.049944737571408
  25    -0.028564159742327
  26    0.00046976764298646
  27    -0.0055246607341212
  28    -0.00028238691622688
  29    0.0076462035612164
  30     -0.22663226058807
  31     -0.21098625563391
  32      0.13649293476948
  33    0.0010122719555733
  34      0.43867327994612
  35     0.089761417107045
  36    0.00071141478083152
  37      0.28720562427524
  38     -0.01701283156359
  39    -0.010406870792505
  40    -5.708037634055e-05
  41    -0.0018169120271104
  42    -5.2730444393488e-05
  43     0.016542448022854
  44      0.01936730713196
  45    -0.0015422105804992
  46    -0.0016233175582428
  47    -0.0097016577647694
  48     0.015740240574269
  49      0.01651426821473
  50    -0.0014013691889544
  51    0.0014660200958158
  52    -0.0096358122457787
  53    0.0085288654956196
  54     0.010975421184815
  55    0.00084619928781946
  56    0.00042820754137869
  57    -0.0012163868666694
  58    -0.0003381598700188
  59    -0.0043726524248316
  60    -0.0098441107115224
  61    -0.010126530287072
  62    0.0019439266531904
  63    -0.012866174339505
  64    -0.010383255087843
  65    0.0018454389385965
  66    -0.007828038116297
  67    -0.00019616424321025
  68    0.00018483009453322
  69    0.00011357932641932
  70    0.00025284093331884
  71    -2.7783630479193e-06
  72    0.0039508320170599
  73    -0.0015207123632444
  74     0.001034035914541
  75    0.00043673722150999
  76    -0.00095702597681623
 Sym= A
 Ene=              10
 Spin= Alpha
 Occup=    1.00000
   1    -0.0067600773644698
   2    -0.069142683557569
   3    -0.028891634311085
   4     0.030577563928646
   5    -0.016050364053425
   6     0.092536047264859
   7    0.0028955530106601
   8    -0.00096881915968948
   9    0.0083960381029636
  10    -0.0055854100812321
  11    -0.0026953934363512
  12    0.0024085317368431
  13    -0.00067088890389472
  14    0.00076474608000446
  15    -0.00035296313800652
  16    -0.00097592639912049
  17    0.00068918735667217
  18    -0.0012452374861293
  19    -0.0013479908678247
  20    0.0081534565856154
  21    -0.010183712889016
  22    -0.0041787417656237
  23    0.0047548782284752
  24    0.00067785367440393
  25    -0.0043086588605419
  26    -3.3991215421932e-05
  27    -0.0010489498452264
  28    0.00070132225946955
  29    -0.000448076214603
  30    -0.0019394725234533
  31    -0.0023803567519219
  32    0.0035017464113814
  33    0.00010060973245103
  34    0.0016249593965768
  35    0.0032049379705448
  36    0.00053414654419755
  37    0.00045769249091223
  38    2.1298125016045e-05
  39    0.0001720935840635
  40    -1.108364544118e-06
  41    0.00016780819112539
  42    6.1654891822447e-06
  43    -0.0014375085125369
  44    0.0020117554478822
  45    0.00032275638859541
  46    -5.3460158181211e-05
  47    0.00035479358150341
  48    -0.0014420947529623
  49     0.010901108351706
  50    3.7851728633467e-05
  51    -4.1476577896885e-05
  52    0.00037409091301353
  53    -0.00089659465642957
  54     0.014694366950825
  55    0.0013050551380027
  56    -0.00080223072064868
  57    0.0039164035874535
  58    -0.0017685621843616
  59      0.43836855806412
  60       0.5240816883471
  61    -0.098150658368821
  62     0.041145219006158
  63     -0.30260372494583
  64    -0.066957312091718
  65     0.028133809385172
  66     -0.20959770794244
  67    -0.006916571630104
  68    -0.0042994150151676
  69    0.0020716522547898
  70    -0.00048988743337376
  71    0.00067934897534619
  72    -0.002714961932607
  73     0.013801437020214
  74    0.0012505627073537
  75    -0.00066865838540917
  76    0.0040461405418986
 Sym= A
 Ene=              11
 Spin= Alpha
 Occup=    1.00000
   1    -0.00033778776980688
   2    -0.00078371243070348
   3    0.0016493719091144
   4    0.0018853296206414