[Molden Format]
made by pyscf v[2.0.1]
[Atoms] (AU)
C   1   6     0.00000000000000     0.00000000000000     0.00000000000000
C   2   6     2.85207482267819     0.00000000000000     0.00000000000000
F   3   9     3.65415199667903     0.00000000000000     2.45977207315200
H   4   1     3.58561868306314    -1.66499644088808    -0.96128614334650
H   5   1     3.58561868306314     1.66499644088808    -0.96128614334650
H   6   1    -0.73354386038494    -1.80662699073290     0.65755844904870
F   7   9    -0.80207717400084     1.88429472797734     1.58111101127508
H   8   1    -0.73354386038494     0.33385117401718    -1.89336409366168
[GTO]
1 0
 s    8 1.00
                  6665  0.00069158396281299
                  1000  0.0053257961529341
                   228   0.027060721042034
                 64.71    0.10165684614077
                 21.06     0.2745748236174
                 7.495    0.44829431892377
                 2.797    0.28490261071525
                0.5215   0.015194859206082
 s    8 1.00
                  6665  -0.00029326965268655
                  1000  -0.0023180354739745
                   228  -0.011499786038565
                 64.71  -0.046826727009787
                 21.06   -0.12846616875047
                 7.495   -0.30126627246289
                 2.797   -0.25563070233011
                0.5215      1.093793361012
 s    1 1.00
                0.1596                   1
 p    3 1.00
                 9.439   0.056979251590039
                 2.002    0.31320721150073
                0.5456    0.76037674173753
 p    1 1.00
                0.1517                   1
 d    1 1.00
                  0.55                   1

2 0
 s    8 1.00
                  6665  0.00069158396281299
                  1000  0.0053257961529341
                   228   0.027060721042034
                 64.71    0.10165684614077
                 21.06     0.2745748236174
                 7.495    0.44829431892377
                 2.797    0.28490261071525
                0.5215   0.015194859206082
 s    8 1.00
                  6665  -0.00029326965268655
                  1000  -0.0023180354739745
                   228  -0.011499786038565
                 64.71  -0.046826727009787
                 21.06   -0.12846616875047
                 7.495   -0.30126627246289
                 2.797   -0.25563070233011
                0.5215      1.093793361012
 s    1 1.00
                0.1596                   1
 p    3 1.00
                 9.439   0.056979251590039
                 2.002    0.31320721150073
                0.5456    0.76037674173753
 p    1 1.00
                0.1517                   1
 d    1 1.00
                  0.55                   1

3 0
 s    8 1.00
                 14710  0.00072067370873197
                  2207  0.0055504869689163
                 502.8   0.028254207662589
                 142.6    0.10639582836653
                 46.47    0.28668420124307
                  16.7    0.44843796582416
                 6.356    0.26464118141135
                 1.316   0.015326060993048
 s    8 1.00
                 14710  -0.00032119389049893
                  2207  -0.0025461915683188
                 502.8  -0.012643359507821
                 142.6   -0.05195749170489
                 46.47   -0.14344713812646
                  16.7   -0.33243762329603
                 6.356   -0.21865906750347
                 1.316     1.0955904138622
 s    1 1.00
                0.3897                   1
 p    3 1.00
                 22.67   0.064834021493887
                 4.977    0.34053535983101
                 1.347    0.73464640679382
 p    1 1.00
                0.3471                   1
 d    1 1.00
                  1.64                   1

4 0
 s    3 1.00
                 13.01   0.033498726389998
                 1.962    0.23480080117413
                0.4446     0.8136829578829
 s    1 1.00
                 0.122                   1
 p    1 1.00
                 0.727                   1

5 0
 s    3 1.00
                 13.01   0.033498726389998
                 1.962    0.23480080117413
                0.4446     0.8136829578829
 s    1 1.00
                 0.122                   1
 p    1 1.00
                 0.727                   1

6 0
 s    3 1.00
                 13.01   0.033498726389998
                 1.962    0.23480080117413
                0.4446     0.8136829578829
 s    1 1.00
                 0.122                   1
 p    1 1.00
                 0.727                   1

7 0
 s    8 1.00
                 14710  0.00072067370873197
                  2207  0.0055504869689163
                 502.8   0.028254207662589
                 142.6    0.10639582836653
                 46.47    0.28668420124307
                  16.7    0.44843796582416
                 6.356    0.26464118141135
                 1.316   0.015326060993048
 s    8 1.00
                 14710  -0.00032119389049893
                  2207  -0.0025461915683188
                 502.8  -0.012643359507821
                 142.6   -0.05195749170489
                 46.47   -0.14344713812646
                  16.7   -0.33243762329603
                 6.356   -0.21865906750347
                 1.316     1.0955904138622
 s    1 1.00
                0.3897                   1
 p    3 1.00
                 22.67   0.064834021493887
                 4.977    0.34053535983101
                 1.347    0.73464640679382
 p    1 1.00
                0.3471                   1
 d    1 1.00
                  1.64                   1

8 0
 s    3 1.00
                 13.01   0.033498726389998
                 1.962    0.23480080117413
                0.4446     0.8136829578829
 s    1 1.00
                 0.122                   1
 p    1 1.00
                 0.727                   1

[5d]
[7f]
[9g]

[MO]
 Sym= A
 Ene=               0
 Spin= Alpha
 Occup=    1.00000
   1    -0.00018902989126852
   2    8.0796087632946e-05
   3    0.0028121147025484
   4    0.0003910907266664
   5    -1.2401803653515e-05
   6    -1.0239566881714e-05
   7    0.0013889877624413
   8    0.00010050033695949
   9    4.2099914715578e-05
  10    2.3762793358327e-05
  11    -0.00011840045423469
  12    1.4873136068022e-06
  13    -4.5755051768146e-05
  14    -3.5088835502122e-06
  15       1.0021082183385
  16    0.0049059252276359
  17    -0.008485941015586
  18    0.00035043324212048
  19    -7.0034814547778e-05
  20    0.00068582599809284
  21    0.0011755644520063
  22    -6.7986298083562e-05
  23    0.0003764474583733
  24    9.8526872149688e-05
  25    -8.5484352812871e-06
  26    2.4029141687726e-05
  27    -0.00013383721183758
  28    -1.2684215362806e-05
  29    0.00014569490385099
  30    0.00064223176901909
  31    0.0001201496991195
  32    -0.00010070667721129
  33    -3.7747613778269e-06
  34    -0.00035601433313494
  35    0.00015645069645171
  36    1.1243935554819e-05
  37    0.00076355548639867
  38    -0.00018436803855308
  39    -0.00011131693079054
  40    -4.5366127380495e-07
  41    -2.4571978801864e-05
  42    3.007943065625e-07
  43    0.00058563040744146
  44     0.001359201410687
  45    -2.8053231657332e-05
  46    -0.00016647426022102
  47    -0.00018185289283113
  48    0.00066427572331223
  49    0.0014145316420083
  50    -4.4464033411455e-05
  51    0.00013135005458745
  52    -0.00014863117335039
  53    -8.4283169701632e-05
  54    0.00021172115719606
  55    7.7659572362344e-05
  56    2.2679525939957e-05
  57    -1.9580054042986e-05
  58    -1.841277776443e-05
  59    -2.0806904911693e-05
  60    -8.7882245184945e-05
  61    9.5459120379196e-06
  62    -2.4303113436658e-06
  63    -8.7767420927298e-06
  64    0.00011571870259702
  65    3.0897596945194e-05
  66    5.5509282748451e-05
  67    -1.739181356802e-05
  68    -6.5647650561348e-06
  69    2.6448332723714e-06
  70    3.4056656938493e-05
  71    -1.1957403361582e-05
  72    -5.6161761586155e-05
  73    0.00014075533442215
  74    6.2113925735114e-05
  75    -2.5504046252443e-05
  76    5.8079473193778e-05
 Sym= A
 Ene=               1
 Spin= Alpha
 Occup=    1.00000
   1       1.0021081225205
   2    0.0049078333137018
   3    -0.0084848541958495
   4    -0.00035183987640474
   5    0.00056992475000272
   6    0.0003857359750142
   7    -0.0011760543343783
   8    0.00033188640922032
   9    0.00018936116765772
  10    0.00010039001472912
  11    1.5265898792288e-05
  12    2.2201871454347e-05
  13    -0.00013284106547594
  14    -1.5131129727332e-06
  15    -0.00018906210842092
  16     8.05679228364e-05
  17    0.0028118738625247
  18    -0.00039075115132293
  19    1.5377657372906e-06
  20    -1.6177437482287e-05
  21    -0.0013887823528702
  22    -3.1779297629615e-05
  23    0.00010403356326556
  24    2.7365103763057e-05
  25    7.885730764269e-05
  26    -2.0828850832047e-06
  27    -4.3639509899181e-05
  28    8.8508863829756e-05
  29    -1.8413211316928e-05
  30    -2.0791174952678e-05
  31    -8.7813145650282e-05
  32    -9.5792556217088e-06
  33    -5.1857102053996e-06
  34    -7.5850593588016e-06
  35    -0.00011579873582426
  36    2.2551112806315e-05
  37    5.9290831018624e-05
  38    -1.7133756167273e-05
  39    1.337288697255e-05
  40    2.3745358018657e-06
  41    3.4201900833736e-05
  42    -2.6618049108127e-06
  43    -5.719368120993e-05
  44    0.00014036928341868
  45    -6.2052577567049e-05
  46    6.0856735171065e-05
  47    1.7759504535883e-05
  48    -8.3229220688919e-05
  49    0.00021216911649533
  50    -7.7689067775567e-05
  51    -2.962154164172e-05
  52    4.8233866570118e-06
  53     0.000665662185845
  54    0.0014149041595543
  55    4.4481738684444e-05
  56    -0.00019816111245323
  57    4.9822452802427e-06
  58    0.00014567642145337
  59    0.00064219761125468
  60    0.00012003468363967
  61    0.00010066697501503
  62    -0.00027016392501023
  63    -0.00023166367997297
  64    -0.00015641306634459
  65    0.00057779769617529
  66    0.00049955188207717
  67    -9.9617211233355e-06
  68    7.1325949490704e-05
  69    -0.00016939348928123
  70    7.6095500397792e-05
  71    8.5477259405731e-05
  72    0.00058810011526585
  73    0.0013598850798616
  74    2.8120876128279e-05
  75    -3.2372173159533e-05
  76    -0.00024421176262025
 Sym= A
 Ene=               2
 Spin= Alpha
 Occup=    1.00000
   1    -0.000166242079727
   2    0.00023172381558304
   3    0.0027741996831541
   4    -0.00034313605241652
   5    0.00064899042877806
   6    0.00053935620305687
   7    -5.5940223638673e-05
   8    0.0010107766264379
   9    0.00093083764860302
  10    3.3422206805641e-06
  11    -6.1317977948652e-05
  12    0.00013830920090552
  13    -6.3086730373346e-05
  14    -8.4311211486625e-05
  15    7.1708262510604e-06
  16    -8.3095204396246e-06
  17    -0.00077900959445123
  18    0.00013033604673604
  19    -1.8012181156442e-05
  20    2.851091207732e-06
  21    0.00027998634040207
  22    -6.6323313306156e-05
  23    -0.00014213486097859
  24    2.9417286398935e-05
  25    1.9239063933131e-05
  26    4.4131379873206e-05
  27    -3.8520756113597e-05
  28    7.2427248357693e-06
  29    1.527749169128e-05
  30    2.6179028762209e-05
  31    -1.7901783500264e-05
  32    -1.4805638951168e-05
  33    -1.4930361734166e-05
  34    1.6239060607819e-05
  35    0.00011098027641652
  36    1.6490656128521e-05
  37    -1.8347028099209e-05
  38    6.2467003326547e-06
  39    -8.4521341429496e-06
  40    5.5468765494838e-06
  41    -1.6704598926722e-05
  42    6.5789516444075e-06
  43    1.8408545732173e-05
  44    0.00021406116400757
  45    -3.9235793448372e-05
  46    1.0814035994022e-05
  47    1.9993080508139e-05
  48    5.182900470457e-05
  49    -0.0001311484455306
  50    6.1944560335455e-05
  51    -1.3121158809824e-05
  52    -5.9683695703759e-06
  53    -0.00025727176816658
  54    -0.0001806000489532
  55    -5.373380724285e-07
  56    -0.0001211683190859
  57    -9.941391466028e-05
  58       1.0009635508142
  59    0.00091348742364702
  60    -0.0050828486428848
  61    0.00060397952142974
  62    -0.0015025518615802
  63    -0.0012664295826338
  64    -0.00025986041570534
  65    0.00052773394972102
  66    0.00044852771646282
  67    -1.2238165926777e-05
  68    5.4049486098663e-05
  69    -0.00012751480740459
  70    6.7076515521861e-05
  71    6.331760882624e-05
  72    -0.00023788234242889
  73    -0.00010702191650131
  74    7.5598531933883e-06
  75    -0.00011296891116038
  76    -9.8258931003613e-05
 Sym= A
 Ene=               3
 Spin= Alpha
 Occup=    1.00000
   1    7.1916658267685e-06
   2    -9.6904369920648e-06
   3    -0.00078427138866591
   4    -0.00013348285996211
   5    1.3420874950595e-05
   6    -1.1443210814891e-05
   7    -0.0002833180134827
   8    -6.6405225495427e-05
   9    -0.00014010537749861
  10    6.0880987708147e-05
  11    -1.761085868493e-05
  12    1.3681819082321e-05
  13    -2.0424745772355e-05
  14    -1.0080180803897e-05
  15    -0.00016583850212279
  16    0.0002343305259935
  17    0.0027760278181456
  18    0.00034391982930247
  19    -4.0306353646835e-06
  20    0.00085113323820792
  21    5.3453916291438e-05
  22    6.3138993970762e-05
  23    0.0013728832708424
  24    0.00015199992301739
  25    0.00010238726467427
  26    -4.3558719571034e-06
  27    2.1075958763562e-05
  28    -7.271988111316e-06
  29       1.0009635920036
  30    0.00088669045268951
  31    -0.0051141329131509
  32    -0.00065126311472062
  33    -7.0522792816545e-06
  34    -0.0019710334800401
  35    0.00022658876329996
  36    2.4609711896611e-06
  37    0.00068841952599824
  38    -0.00014429438365791
  39    -8.2280965605795e-05
  40    5.0161652908233e-07
  41    -8.8864272901078e-06
  42    -6.675672200292e-07
  43    -0.00023790685956643
  44    -0.00010702411444759
  45    -7.3157227907302e-06
  46    -2.819737640726e-06
  47    -0.00014942492227246
  48    -0.00025690573831427
  49    -0.00018007400334198
  50    7.6368510580192e-07
  51    1.9014489874586e-06
  52    -0.00015642627657623
  53    5.212013802034e-05
  54    -0.00013081150316274
  55    -6.1928992974089e-05
  56    3.8668387185331e-06
  57    -1.3951690708288e-05
  58    1.5249531635167e-05
  59    2.590791823158e-05
  60    -1.837162781224e-05
  61    1.4532594096418e-05
  62    2.2443792833512e-05
  63    -1.0393007560615e-06
  64    -0.00011065186974976
  65    -2.4197308244331e-05
  66    7.6961836107623e-07
  67    1.3955164851437e-05
  68    4.6137580631101e-07
  69    -1.952153843098e-06
  70    -1.2216635916613e-05
  71    1.0703468376259e-05
  72    1.937352176539e-05
  73    0.00021611526790274
  74    3.9036391596909e-05
  75    8.3290614539824e-06
  76    2.1129523030541e-05
 Sym= A
 Ene=               4
 Spin= Alpha
 Occup=    1.00000
   1    -0.0010248251825052
   2    -0.019213630445018
   3     -0.04764101624139
   4    -0.031492744696689
   5    -0.003110443263276
   6    -0.0061504013109901
   7    -0.038067044069749
   8     -0.01903779110824
   9     0.016436381354711
  10    0.0016690395846033
  11    -0.00048921840220886
  12    2.2335727278881e-05
  13    -0.00047235702643119
  14    -0.0022048206952175
  15    -0.0013626468593455
  16    -0.00041078026473534
  17      0.01573448109975
  18    -0.00047044112706811
  19    -0.0044285456497739
  20    0.00056918231130386
  21    -0.029997162069704
  22     0.024988057375056
  23    -0.010738187080937
  24     0.011665639357771
  25    -0.018287778979119
  26     0.028219492892859
  27    -0.0086990496678215
  28    0.0053232782049794
  29    -0.00073911892414327
  30    0.0065529989831502
  31      0.01616680941499
  32     -0.40895766916051
  33      0.51088768590778
  34      0.13068376239967
  35     -0.28901286152294
  36      0.36046300300487
  37     0.089712053686688
  38    -0.0039783381331647
  39    0.0069301812151329
  40    -0.0093105474935642
  41    0.0026127069133951
  42    -0.0030785353347904
  43     0.058938466135016
  44     0.060795670518211
  45    0.00078046103601227
  46    -0.00091459714065988
  47    0.0021165825088441
  48    -0.023727654070353
  49    -0.025451796640612
  50    0.0014549972532865
  51    -0.00095324533348181
  52    -0.00012384093825172
  53    -0.0056677865371211
  54    -0.015279478919848
  55    -0.0008967069092398
  56    -0.00092344068665749
  57    -0.001138422965216
  58    -0.0015260777355083
  59    -0.0055013054566073
  60    0.0036669785428004
  61    -0.0074519855028851
  62     0.002546947305427
  63    -0.0045301539723657
  64    0.0040156933711967
  65     0.003327222775375
  66    -0.0024785037469421
  67    -0.00017622277777885
  68    0.00098429794294646
  69    -0.00034103850605185
  70    0.0007814121942904
  71    2.6000913024588e-05
  72     0.011014388051541
  73      0.01975386257265
  74    -0.0015032189019874
  75    -6.8640742529061e-05
  76    0.00062099866857122
 Sym= A
 Ene=               5
 Spin= Alpha
 Occup=    1.00000
   1    0.0010510951420973
   2     0.022921591664601
   3     0.060646504048694
   4     0.037826668216725
   5    -0.0086944759161337
   6    0.0066180664341823
   7     0.021685415833374
   8    -0.018812805252646
   9    -0.025637086103816
  10    -0.0025523874147014
  11    0.00041948695438854
  12    0.00097607011675898
  13    0.00022873083872566
  14     -0.00071173674126
  15    0.0013113219824444
  16      0.00163742378248
  17    -0.002079136708411
  18    -0.0010246138669097
  19    -0.0037055015732157
  20    0.0018587123657382
  21     0.020380893103593
  22     0.021894544071756
  23      0.01253300127384
  24      -0.0138750961143
  25     0.021412342006489
  26     0.023352294588384
  27     0.011172807861327
  28    0.0052948611565036
  29    0.0012976160980577
  30    -0.0081989572349634
  31    -0.021034482554932
  32      0.48359468596887
  33      0.42950587458528
  34     -0.15977796181189
  35      0.34267023849967
  36      0.30353568349869
  37     -0.11029017806125
  38    0.0052056366878096
  39    -0.0080521972784279
  40    -0.007692100478853
  41    -0.0026398082490337
  42    -0.0029922046917281
  43     0.012789023408697
  44     0.017651589479679
  45    -0.0017009891079881
  46    -0.00073288651094819
  47    0.0001900466574615
  48    -0.055500883574153
  49    -0.053308397575715
  50    -0.0010721552969903
  51    -0.00055545478737752
  52    -0.0020337500375266
  53    0.0066739282628014
  54    -0.020384022245752
  55    0.00019686449819625
  56    0.0001761028751219
  57    0.00084231881912142
  58    -0.00089715843262265
  59    0.00025474155253298
  60     0.012663020703939
  61    0.00058046284551673
  62    -0.0034192105821391
  63    0.00061627161968736
  64    -0.0022311789174844
  65    -0.0037053557520971
  66    -0.0012247097449182
  67    -0.00021335806887156
  68    -0.00062157173000095
  69    0.00025761577847159
  70    -0.00017207529482914
  71    -0.00018976558386888
  72    -0.016754849353584
  73    -0.027472138826037
  74    0.0018416280370369
  75    0.00093909265939018
  76    -0.0010835277168062
 Sym= A
 Ene=               6
 Spin= Alpha
 Occup=    1.00000
   1    -0.0015307310094301
   2    -0.00089840175392711
   3    0.0095513021442112
   4    -0.00073623667920754
   5    0.0018269199225686
   6    0.0020080673074848
   7     0.032528845682077
   8    -0.0069765144165396
   9    -0.015587307278982
  10    0.0033065788627392
  11     0.019236381059918
  12    0.0073455313152712
  13    -0.022346865980494
  14     0.019598452526313
  15    -0.0013747769061661
  16    -0.028577752876939
  17    -0.075889914033272
  18     0.048529597393591
  19    -0.011344022743522
  20    -0.0011931797175906
  21     0.037729191344953
  22     0.018234691732887
  23     0.024881237240457
  24    -0.00017781349411935
  25    0.00059811621771609
  26     0.002292317490146
  27    -0.0022805608888348
  28    -1.8265585632697e-05
  29    3.9401051151772e-05
  30    -0.0029076989101276
  31    -0.0093159780700974
  32    0.0040783684831488
  33    -0.0047432448815684
  34    0.0016240507594789
  35    -0.0039314791458301
  36    -0.0031599509195782
  37    0.0037150473445522
  38    -0.00057653226400596
  39    -0.00078828248618016
  40    0.00029020909939126
  41    0.00012932219372551
  42    -0.00066401270654348
  43     0.021277851279359
  44     0.034059628989377
  45    0.0023024334166757
  46    0.0015443143477259
  47    0.00017478627728635
  48    -0.0087260631327397
  49     0.010096731342414
  50    0.00060264859611995
  51    -0.0006176388715714
  52    -0.0012775044902021
  53     0.035340168690225
  54     0.033463061784034
  55    -0.0017355612699589
  56    0.0012514975581439
  57     0.001292179557229
  58    -0.0013615202186518
  59    -0.0031133323416351
  60     0.010102480723556
  61        0.623862367929
  62      0.23244003976996
  63     0.023505438075874
  64      0.44159765442826
  65      0.16177399982359
  66     0.014233300029386
  67    -0.00062271381575805
  68    -0.0076506397170905
  69    -0.0031747977860038
  70    0.0068543351000125
  71    -0.0073320312774055
  72     0.016270675302084
  73      0.01312906775453
  74    -0.0019231703639754
  75    0.00067694872727877
  76    0.00068231665640069
 Sym= A
 Ene=               7
 Spin= Alpha
 Occup=    1.00000
   1    -0.00052302042725887
   2    0.00034215825549793
   3     0.012667167529917
   4    0.0010369277979613
   5    0.0024104042647338
   6    -4.2446745236581e-05
   7     0.016485564844916
   8    -0.024332896109088
   9     0.023815252647011
  10     0.032074445992694
  11    -0.0019384511527733
  12    0.0081685260634763
  13       0.0141999864536
  14    0.0091242955802106
  15    -0.00037880968664961
  16    -0.0057692154903058
  17    -0.012614750404885
  18    0.0094332148863403
  19    0.0025271381521564
  20    -0.0064799174396819
  21     0.022919935878461
  22      0.01801860481403
  23    -0.018184426142331
  24    0.00055675925244339
  25    0.0017185803408452
  26    0.00013076139863923
  27    -0.00011061104282408
  28    -0.0011748965012206
  29    -0.001761545504831
  30    -0.0047101309868967
  31    0.0091008948848812
  32    0.0063061956908127
  33    -0.0031929772641833
  34    -0.001775943785089
  35    -0.0023342612085957
  36    -0.0028199794818438
  37    -0.00080364353726201
  38    -0.00048423493203039
  39    -0.00030765831186212
  40    4.8893862230256e-05
  41    0.00047354122179662
  42    -0.00047282063334287
  43    0.0016705429905077
  44    0.0040803185310234
  45    0.0004304860254959
  46    -0.00022781330588784
  47    0.00031393670057759
  48    -0.001733418396553
  49     -0.02287193245638
  50    0.00068874395600154
  51    3.498522665507e-05
  52    -0.00095046407422395
  53    -0.044783249042331
  54    -0.046901707412673
  55    -0.00064731834204187
  56    1.2496360390581e-05
  57    -0.0015339612950861
  58    -1.0834508289616e-05
  59    0.00085434776639875
  60    0.0029425033526355
  61      0.12666900465801
  62     -0.39210108779711
  63      0.52512699407004
  64     0.089067093278341
  65       -0.277413038755
  66      0.36984433150345
  67     -0.01080596557428
  68    0.0017514077334147
  69    -0.0023976923647045
  70    -0.0046481855601612
  71    -0.0043711631846445
  72     0.054585868169656
  73     0.060461079183674
  74    -3.1070063002704e-06
  75    0.0022373790606268
  76    0.00019490533155761
 Sym= A
 Ene=               8
 Spin= Alpha
 Occup=    1.00000
   1    0.0026730510392708
   2     -0.14139977658346
   3     0.011869702341539
   4     0.091116853524166
   5     -0.21478232961378
   6     -0.17793111765072
   7     0.027160000175582
   8    -0.038571175989005
   9    -0.032562206317173
  10    -0.0025700567720675
  11      0.01813370320613
  12    -0.044964196923864
  13     0.021273102561859
  14     0.023044384579617
  15    -0.00088860247895258
  16     0.010646261146531
  17    -0.0069961638715351
  18    -0.025792202167305
  19    0.0054168469292121
  20    -0.0023288707861917
  21    -0.0095604365232468
  22    0.0017063998402921
  23    0.0017484181341507
  24    0.0029128705231288
  25    0.0069820230521091
  26    0.0010782292671937
  27    -0.0033501240742625
  28    0.0082510256370721
  29    0.00027098306606367
  30    0.0018189119264718
  31    0.0011418932466417
  32    -0.0027775052718929
  33    -0.00024849313280588
  34    -0.0056787702840346
  35    0.00084221583312587
  36    -4.9951769085934e-05
  37    -0.0033157326971605
  38    -8.0474688810657e-05
  39    0.00040787507891012
  40    -2.7076491287468e-05
  41    -0.00010595510744971
  42    0.00029038495372336
  43    -0.021360922460135
  44    -0.017333946354632
  45    0.0002483644012032
  46    0.00022646823914063
  47    0.00042164823438474
  48    0.0091215577045281
  49    0.0068122167705814
  50    -0.0012752349391905
  51    -0.00087395198919248
  52    -3.5314298647732e-05
  53     0.016800156293731
  54     0.020692387920696
  55    0.0014745135769098
  56    -0.0084063045141232
  57    -0.0049753973356066
  58    0.0073105227342633
  59     -0.22500777319128
  60     -0.20487020611236
  61     -0.13478709849758
  62      0.33527443103952
  63      0.28342820998187
  64    -0.088540316763428
  65      0.21856713948287
  66      0.18509863329608
  67    -0.0014311036012383
  68    0.0066317010075653
  69    -0.015636084708295
  70    0.0074772291317802
  71    0.0077780055864957
  72     0.014131338350136
  73     0.018689856464758
  74    0.0015185134942856
  75    -0.0064144964207495
  76    -0.0075373984174779
 Sym= A
 Ene=               9
 Spin= Alpha
 Occup=    1.00000
   1    -0.00094198939738767
   2     0.011184382259474
   3    -0.0066604600539799
   4     0.025231462978829
   5    -0.0044542198240181
   6    0.00089329420336908
   7    0.0093937437656347
   8    0.00052669516281236
   9    0.0018296299390754
  10    0.0030533433743646
  11    -0.010771526965264
  12    0.0010047038637606
  13    -0.0032743567873061
  14    -6.7841451931496e-05
  15     0.002616242919261
  16     -0.14063438082711
  17     0.012262848970905
  18    -0.090422970625627
  19    0.0019027410359137
  20     -0.27963648870108
  21    -0.026838153676165
  22    -4.4862708877149e-05
  23    -0.050795897107134
  24     -0.04948330139286
  25    -0.029235417308475
  26    0.00047692055177248
  27    -0.0058261996728126
  28    0.00087975767327165
  29    0.0073000313938222
  30     -0.22506213870947
  31     -0.20485083075704
  32      0.13507562779052
  33    0.0016513922138678
  34      0.43889577075983
  35     0.088655628942374
  36    0.0013162801398408
  37      0.28634996937399
  38     -0.01729072349913
  39    -0.010233828930545
  40    -0.00025638563972485
  41    -0.0016961082322162
  42    -8.2753154608282e-05
  43     0.014909480143251
  44     0.018908397241063
  45    -0.0015310921608904
  46    -0.0015713119702736
  47    -0.0097341379768286
  48     0.017665581663647
  49     0.020771495391515
  50    -0.0014907094540101
  51    0.0014972332517149
  52    -0.0096064645748322
  53    0.0084373538356152
  54    0.0065037685469746
  55    0.0012284498355119
  56    0.00051925217575598
  57    -0.00072350123484662
  58    0.00026657750869372
  59    0.0017978685726846
  60    0.0011197494621359
  61    0.0027820050798586
  62    -0.0041895863183404
  63    -0.0037488093631236
  64    -0.00079731944548247
  65    -0.002569160995816
  66    -0.0020028964443677
  67    4.7227096098028e-05
  68    -0.00048581883662409
  69    -0.00011447012432629
  70    -4.1786459090832e-05
  71    -0.00011639609850894
  72    -0.019371088628869
  73    -0.016613576509486
  74    -0.00018205953913631
  75    0.00015706807378401
  76    0.00057657723922471
 Sym= A
 Ene=              10
 Spin= Alpha
 Occup=    1.00000
   1    -0.0013576290171828
   2    -0.0024773842832592
   3     0.010071859451102
   4    0.0023846582878612
   5    0.00034470628350324
   6    -0.006865921194714
   7     0.013272118168206
   8    0.0023182084049327
   9    0.0003267110815759
  10    0.00065821326840576
  11    -0.0049319117334924
  12    0.00053665345045147
  13     -0.00144097772136
  14    -0.00039965282869003
  15    -0.0070118028916003
  16    -0.069509673739059
  17    -0.033717757922006
  18    -0.029833596141599
  19    0.00017738792587397
  20     -0.09441603732624
  21    -0.0020913113266291
  22    2.0500956385512e-05
  23    -0.011505955634823
  24    -0.0058955616693194
  25    -0.0022149059585498
  26    0.00051754024139707
  27    -0.00077113641431069
  28    0.00022449283217702
  29    -0.0018417600500089
  30      0.43965007240194
  31      0.52665664473084
  32      0.11214412571096
  33    0.0034219704771181
  34      0.29813014164727
  35     0.077776542526168
  36    0.0018187401666003
  37      0.20534526023384
  38    -0.0071139833172964
  39    -0.0044211125405899
  40    -0.00021790771279875
  41    -0.00072160830768085
  42    -2.0379177807546e-06
  43    -0.0018222427668868
  44     0.015246075849071
  45    -0.0013535518585855
  46    9.1464959224288e-05
  47    -0.0039866113508304
  48    -0.002174658745316
  49     0.014348127793785
  50    -0.0012483434545087
  51    -0.0001539953753849
  52    -0.0039318100267095
  53    -0.0010744986930878
  54    0.0047827352157778
  55    -0.00031445604129961
  56    -3.0783426767291e-06
  57    -0.00047061937020751
  58    0.00020469839399015
  59    0.00050016470979932
  60    -0.0010468435622387
  61    -0.0011462273022113
  62    -0.0012496442960649
  63    -0.0022533384140567
  64    -0.0017342812370793
  65    -0.00097722962328169
  66    0.00020612674369308
  67    8.8934854935074e-05
  68    2.0440702402506e-05
  69    -0.00013517483132249
  70    3.2623868665429e-05
  71     8.10148121677e-05
  72    -0.0024762671495227
  73     -0.00227928239658
  74    0.00063548255557127
  75    -0.00032293106994357
  76    0.00093796697122646
 Sym= A
 Ene=              11
 Spin= Alpha
 Occup=    1.00000
   1    -0.0070390845418483
   2    -0.070090873616406
   3    -0.033717832566071
   4     0.030173710965574
   5    -0.072115172527197