[Molden Format]
made by pyscf v[2.0.1]
[Atoms] (AU)
C   1   6     0.00000000000000     0.00000000000000     0.00000000000000
C   2   6     2.85207482267819     0.00000000000000     0.00000000000000
F   3   9     3.65415199667903     0.00000000000000     2.45977207315200
H   4   1     3.58561868306314    -1.66499644088808    -0.96128614334650
H   5   1     3.58561868306314     1.66499644088808    -0.96128614334650
H   6   1    -0.73354386038494     0.00000000000000     1.92257228669300
F   7   9    -0.80207717400084     2.13022510286915    -1.22988603657600
H   8   1    -0.73354386038494    -1.66499644088808    -0.96128614334650
[GTO]
1 0
 s    8 1.00
                  6665  0.00069158396281299
                  1000  0.0053257961529341
                   228   0.027060721042034
                 64.71    0.10165684614077
                 21.06     0.2745748236174
                 7.495    0.44829431892377
                 2.797    0.28490261071525
                0.5215   0.015194859206082
 s    8 1.00
                  6665  -0.00029326965268655
                  1000  -0.0023180354739745
                   228  -0.011499786038565
                 64.71  -0.046826727009787
                 21.06   -0.12846616875047
                 7.495   -0.30126627246289
                 2.797   -0.25563070233011
                0.5215      1.093793361012
 s    1 1.00
                0.1596                   1
 p    3 1.00
                 9.439   0.056979251590039
                 2.002    0.31320721150073
                0.5456    0.76037674173753
 p    1 1.00
                0.1517                   1
 d    1 1.00
                  0.55                   1

2 0
 s    8 1.00
                  6665  0.00069158396281299
                  1000  0.0053257961529341
                   228   0.027060721042034
                 64.71    0.10165684614077
                 21.06     0.2745748236174
                 7.495    0.44829431892377
                 2.797    0.28490261071525
                0.5215   0.015194859206082
 s    8 1.00
                  6665  -0.00029326965268655
                  1000  -0.0023180354739745
                   228  -0.011499786038565
                 64.71  -0.046826727009787
                 21.06   -0.12846616875047
                 7.495   -0.30126627246289
                 2.797   -0.25563070233011
                0.5215      1.093793361012
 s    1 1.00
                0.1596                   1
 p    3 1.00
                 9.439   0.056979251590039
                 2.002    0.31320721150073
                0.5456    0.76037674173753
 p    1 1.00
                0.1517                   1
 d    1 1.00
                  0.55                   1

3 0
 s    8 1.00
                 14710  0.00072067370873197
                  2207  0.0055504869689163
                 502.8   0.028254207662589
                 142.6    0.10639582836653
                 46.47    0.28668420124307
                  16.7    0.44843796582416
                 6.356    0.26464118141135
                 1.316   0.015326060993048
 s    8 1.00
                 14710  -0.00032119389049893
                  2207  -0.0025461915683188
                 502.8  -0.012643359507821
                 142.6   -0.05195749170489
                 46.47   -0.14344713812646
                  16.7   -0.33243762329603
                 6.356   -0.21865906750347
                 1.316     1.0955904138622
 s    1 1.00
                0.3897                   1
 p    3 1.00
                 22.67   0.064834021493887
                 4.977    0.34053535983101
                 1.347    0.73464640679382
 p    1 1.00
                0.3471                   1
 d    1 1.00
                  1.64                   1

4 0
 s    3 1.00
                 13.01   0.033498726389998
                 1.962    0.23480080117413
                0.4446     0.8136829578829
 s    1 1.00
                 0.122                   1
 p    1 1.00
                 0.727                   1

5 0
 s    3 1.00
                 13.01   0.033498726389998
                 1.962    0.23480080117413
                0.4446     0.8136829578829
 s    1 1.00
                 0.122                   1
 p    1 1.00
                 0.727                   1

6 0
 s    3 1.00
                 13.01   0.033498726389998
                 1.962    0.23480080117413
                0.4446     0.8136829578829
 s    1 1.00
                 0.122                   1
 p    1 1.00
                 0.727                   1

7 0
 s    8 1.00
                 14710  0.00072067370873197
                  2207  0.0055504869689163
                 502.8   0.028254207662589
                 142.6    0.10639582836653
                 46.47    0.28668420124307
                  16.7    0.44843796582416
                 6.356    0.26464118141135
                 1.316   0.015326060993048
 s    8 1.00
                 14710  -0.00032119389049893
                  2207  -0.0025461915683188
                 502.8  -0.012643359507821
                 142.6   -0.05195749170489
                 46.47   -0.14344713812646
                  16.7   -0.33243762329603
                 6.356   -0.21865906750347
                 1.316     1.0955904138622
 s    1 1.00
                0.3897                   1
 p    3 1.00
                 22.67   0.064834021493887
                 4.977    0.34053535983101
                 1.347    0.73464640679382
 p    1 1.00
                0.3471                   1
 d    1 1.00
                  1.64                   1

8 0
 s    3 1.00
                 13.01   0.033498726389998
                 1.962    0.23480080117413
                0.4446     0.8136829578829
 s    1 1.00
                 0.122                   1
 p    1 1.00
                 0.727                   1

[5d]
[7f]
[9g]

[MO]
 Sym= A
 Ene=               0
 Spin= Alpha
 Occup=    1.00000
   1       1.0021187972755
   2     0.004939478086689
   3    -0.0085961107764316
   4    -0.00034382197717516
   5    0.00059295150860566
   6    -0.0004518328951946
   7    -0.0011875734529305
   8    0.00041865278770584
   9    -0.00027724949453734
  10    6.1358896344644e-05
  11    1.0601197708737e-05
  12    -7.3456523357596e-06
  13    -0.0001632512052605
  14    2.7799156773585e-05
  15    -0.00019529588798042
  16    7.7985812031241e-05
  17    0.0028668609705433
  18    -0.00038011389065826
  19    9.5892018585256e-06
  20    3.0032810043636e-06
  21    -0.0014480607193201
  22    -0.00021074145542453
  23    0.00016575391523915
  24    3.0940599821539e-05
  25    -5.5194713692476e-05
  26    -3.6186611934867e-06
  27    -4.5784040083071e-05
  28    0.0001005095241092
  29    -4.8226955308241e-06
  30    -2.2958088431696e-06
  31    -0.00015761529178469
  32    4.4543088365215e-08
  33    -3.7634912954142e-06
  34    1.0413885689293e-05
  35    -2.6858032941382e-05
  36    1.485247413284e-05
  37    6.9279192079591e-06
  38    -3.6192974204435e-06
  39    8.4365870890556e-06
  40    9.7851003634239e-07
  41    2.8236836387704e-05
  42    -7.7031461806479e-07
  43    -9.2444038046459e-05
  44    1.3855672612935e-05
  45    -4.4176290551662e-05
  46    4.3554486325096e-05
  47    1.3675262070027e-05
  48    -6.9611461145414e-05
  49    0.0003875991745462
  50    -0.00010767784785677
  51    -1.583019453218e-05
  52    4.846358356777e-06
  53    0.00068471902072333
  54    0.0014306123035044
  55    4.6019186128131e-05
  56    -7.8812890062696e-05
  57    0.00016883995453966
  58    0.00015937353271192
  59    0.00066967176576397
  60    4.1035740128099e-05
  61    9.8009045852128e-05
  62    -0.00030658034840394
  63    0.00017505140937215
  64    -0.00016724598915024
  65    0.00067597993899992
  66    -0.0003826621389167
  67    4.0812941004589e-05
  68    -5.789686708516e-05
  69    0.0001503163869115
  70    0.0001067105562685
  71    9.9492206363087e-05
  72    0.00060829589889372
  73    0.0014128225335593
  74    2.3963491704762e-05
  75    -0.00024181750141669
  76    -4.3923711500657e-05
 Sym= A
 Ene=               1
 Spin= Alpha
 Occup=    1.00000
   1    -0.00019524092664368
   2    7.7603065207582e-05
   3    0.0028667250525052
   4    0.00038080986853957
   5    7.2011887606237e-06
   6    5.6212767895898e-06
   7    0.0014483704288508
   8    3.8117940664059e-05
   9    -0.0002658956502855
  10    2.8544325452843e-05
  11    -0.0001145576044541
  12    -5.1895190640669e-06
  13    -4.7190050846639e-05
  14    -2.442340617485e-06
  15       1.0021188922053
  16    0.0049377241102546
  17    -0.0085970708734973
  18    0.00034244216320854
  19    -9.4705034991393e-05
  20    0.00074064392341776
  21    0.0011870100318991
  22    -3.0748642328054e-05
  23    0.00050171625687381
  24    0.00010392582597741
  25    -1.8672380586174e-05
  26    2.0993749671489e-05
  27    -0.00013861791454451
  28    -2.3057510860808e-05
  29    0.00015939432202885
  30    0.00066972642329368
  31    4.1138989926187e-05
  32    -9.8070681901905e-05
  33    -1.6966943489225e-06
  34    -0.00035317472501186
  35    0.00016727845409957
  36    6.5859856564461e-06
  37    0.00077659287153752
  38    -0.00018717863646654
  39    -0.00011509981532356
  40    -1.6603036070295e-06
  41    -2.4898689839503e-05
  42    3.9394039535155e-07
  43    0.00060637562815245
  44    0.0014122860472826
  45    -2.3925634168978e-05
  46    -0.00015911780682202
  47    -0.00018751794549403
  48    0.00068302172554976
  49    0.0014301947187295
  50    -4.5989617260803e-05
  51    0.00010698323040761
  52    -0.00015272768737178
  53    -7.1074896053036e-05
  54    0.00038699995832046
  55    0.00010764454194128
  56    -3.7160991412379e-06
  57    -1.6031274754464e-05
  58    -4.8152347006537e-06
  59    -2.2689132432158e-06
  60    -0.00015759945943389
  61    -2.115207679894e-08
  62    7.1104457400167e-06
  63    -8.4156341624728e-06
  64    2.6831423741714e-05
  65    1.3438250835313e-05
  66    9.5000618332106e-06
  67    -1.8634737647405e-05
  68    4.8871622223679e-06
  69    -9.0087246302223e-06
  70    1.9574975684313e-05
  71    -6.9306451340635e-06
  72    -9.2179973160941e-05
  73    1.402760475265e-05
  74    4.4208468275371e-05
  75    3.3618035199268e-05
  76    3.0850866691512e-05
 Sym= A
 Ene=               2
 Spin= Alpha
 Occup=    1.00000
   1    4.2067750298571e-05
   2    4.6135416188541e-05
   3    -0.0010803724929107
   4    -0.00012299659352289
   5    1.1054614778127e-05
   6    3.0543422560939e-05
   7    -0.00040870906342651
   8    -5.6883668487831e-05
   9    -0.00041991853037054
  10    8.963971670462e-05
  11    -3.4065240381564e-05
  12    2.7094711735613e-06
  13    1.3737920659903e-05
  14    -9.3433437125925e-06
  15    -0.00017251102739998
  16    0.00021280491462666
  17    0.0029247523861861
  18    0.00032946626522746
  19    -1.6921041713906e-06
  20    0.00083335258111639
  21    -1.4557041245031e-05
  22    1.946456604274e-05
  23    0.0013894007904723
  24    0.00014569864998927
  25    7.3019845675898e-05
  26    1.8085848281767e-06
  27    1.595530617129e-05
  28    -3.9448718033638e-06
  29       1.0009619419084
  30    0.00096439181505948
  31    -0.0050120639776092
  32    -0.00068837890351787
  33    4.1270787815112e-05
  34    -0.0018882837641559
  35    0.00018065037219185
  36    3.4559024373921e-05
  37    0.00070758236836842
  38    -0.00014445933789989
  39    -7.6011772195795e-05
  40    -1.2352217636202e-06
  41    -3.9005937713228e-06
  42    -6.9175903147951e-07
  43    -0.00025594486292131
  44    -0.00012240661752832
  45    -4.4105408011551e-06
  46    -8.1871635249062e-06
  47    -0.0001569079479464
  48    -0.00026058843113821
  49    -0.00014968540635349
  50    -2.8372068864366e-06
  51    7.6637023981996e-06
  52    -0.00015801803598096
  53    4.072203456478e-05
  54    0.00018071664393898
  55    -3.1240082461235e-05
  56    2.0763109278135e-06
  57    -8.7699600407956e-07
  58    -5.5526083648802e-06
  59    -4.7933959323152e-06
  60    8.0650920583094e-05
  61    1.2357730840911e-05
  62    -1.1240002706828e-05
  63    7.5524655209248e-06
  64    4.9430901496581e-05
  65    -1.210442060946e-05
  66    4.0299658910235e-05
  67    1.000401956217e-05
  68    -3.2518904680276e-07
  69    -1.0569460152429e-05
  70    -3.97575082999e-07
  71    -2.5304108346941e-06
  72    8.0381557765665e-05
  73    -5.2953220285193e-05
  74    1.6902225092321e-05
  75    -2.3674000330143e-06
  76    4.8195578054381e-05
 Sym= A
 Ene=               3
 Spin= Alpha
 Occup=    1.00000
   1    -0.00017251457941359
   2    0.00021453374586735
   3    0.0029256863677686
   4    -0.00033040733703925
   5    0.00072032567800789
   6    -0.00041770822677125
   7    1.379116030515e-05
   8    0.0012128306826484
   9    -0.00067766013327117
  10    -3.0038599058662e-05
  11    4.012313244469e-05
  12    -0.00011509169502002
  13    -8.5233759338464e-05
  14    -6.1706127345192e-05
  15    4.2080254556882e-05
  16    4.575834796027e-05
  17    -0.0010795970555702
  18    0.0001220712508387
  19    3.0217421649485e-05
  20    -5.2173530119467e-06
  21    0.00040828873952117
  22    -0.00039275565538604
  23    0.00016092893840593
  24    -2.2167679249383e-05
  25    -8.9304297614806e-06
  26    -7.1720936915652e-05
  27    -5.0724620451032e-05
  28    3.411216334014e-05
  29    -5.5396705069063e-06
  30    -4.7936850918347e-06
  31    8.0513210717191e-05
  32    -1.2284341544082e-05
  33    9.3071375919488e-07
  34    -1.345596602107e-05
  35    -4.93308688082e-05
  36    2.8996906299465e-05
  37    -3.055159421611e-05
  38    6.9194976640769e-06
  39    2.0389207005288e-06
  40    -1.259102887248e-05
  41    -2.1626898763618e-06
  42    1.5535985761585e-06
  43    8.091966798199e-05
  44    -5.2762653524565e-05
  45    -1.6979951476121e-05
  46    4.0537496893561e-05
  47    -2.6138425853275e-05
  48    3.8857231249245e-05
  49    0.00017965391080838
  50    3.1386649413873e-05
  51    3.7037841597787e-07
  52    2.1842980837398e-06
  53    -0.00025967155246198
  54    -0.00014995203495541
  55    2.8910328336596e-06
  56    -0.00013304516388151
  57    8.550803599543e-05
  58       1.0009619645035
  59    0.00096257111730532
  60     -0.00501440141073
  61    0.00067942173696277
  62    -0.0016175047971857
  63    0.00098329737077478
  64    -0.00018694673489909
  65    0.00062815529728646
  66    -0.00032149366108277
  67    2.1561303407376e-05
  68    -3.7465900398795e-05
  69    0.00010931872591597
  70    9.1803801511605e-05
  71    6.6301817684727e-05
  72    -0.00025501539290305
  73    -0.00012253143150379
  74    4.466951142087e-06
  75    -0.00013987765676096
  76    7.145171863132e-05
 Sym= A
 Ene=               4
 Spin= Alpha
 Occup=    1.00000
   1    -0.00057957740862265
   2    -0.022071127747786
   3    -0.055673711440929
   4    -0.028425866821086
   5    -0.0054696966182242
   6    -0.010412429182614
   7    -0.0075081386054002
   8    0.00094293026997782
   9    0.00088852208868671
  10    0.00077363495790419
  11    -0.00057963880449802
  12    0.00058404151411556
  13    -0.00062304099766094
  14    -0.0017889743336353
  15    -0.0010751449025542
  16    -0.0035615839195682
  17    -0.0099940569462487
  18    0.00067053031661595
  19    -0.005931294659357
  20    -0.0036452592636115
  21    -0.017111274873601
  22     0.021093836475749
  23    -0.0077777261548025
  24     0.011275559337856
  25    -0.017538359540923
  26     0.027557842506248
  27    -0.0092670495294599
  28    0.0064357333430607
  29    -0.0011498182371428
  30     0.025059985292305
  31     0.038692835874786
  32     -0.39759682243968
  33      0.51568890299483
  34      0.13885651244341
  35     -0.28222203688528
  36      0.36556557804999
  37     0.096020210533841
  38    -0.0042383163024255
  39    0.0063355189084019
  40    -0.0091184810843638
  41    0.0024698132591726
  42    -0.0033881015833703
  43     0.059983134188232
  44     0.058669954057245
  45    0.00057167891940061
  46    -0.00049565724098894
  47    0.0020519298080111
  48    -0.024782263190149
  49    -0.022653606581901
  50    0.0013628215236871
  51    -0.00068056134088238
  52    -0.00080897218403401
  53    -0.0098797422867203
  54     0.018984373396248
  55    0.0025863538799828
  56    0.00060437109891575
  57    0.0018231469670734
  58    0.00051822347197114
  59    0.0033894026859443
  60    0.0059235384221106
  61    0.0058832912132554
  62    -0.0037285667147863
  63    0.0025546023129314
  64    0.0020701871966376
  65    -0.0051016057898987
  66    0.0021392539508143
  67    2.5448891572878e-05
  68    -0.00031337512010227
  69    0.00011799114972846
  70    -0.00051248511452911
  71    0.00045778538445259
  72     0.010878100922319
  73     0.016431016710997
  74    -0.00049947464812949
  75    0.0013937013037687
  76    3.1384406924268e-05
 Sym= A
 Ene=               5
 Spin= Alpha
 Occup=    1.00000
   1    -0.00030888374841437
   2     0.025292317224649
   3     0.077216519251289
   4     0.034545829048737
   5    0.0014534905289054
   6     0.012190512186406
   7     0.025142365803515
   8    0.0042830739542709
   9    0.00012316637607905
  10    -0.0010792996547962
  11    0.00069198706320798
  12    0.00071117713781284
  13    0.00049068288757641
  14    -0.0012161993775259
  15    0.0020980620038054
  16    0.0024178169175379
  17    -0.011022268925116
  18    -8.1872837770784e-05
  19    -0.0050637297911292
  20    0.0024690783487033
  21     0.028167453250596
  22     0.014946385245992
  23    0.0067714008785938
  24    -0.013987232286916
  25     0.021344580803599
  26     0.022928078752051
  27     0.010960614330239
  28    0.0050058457380991
  29    0.0012098683272156
  30    -0.013760776206937
  31    -0.025200541636696
  32        0.489314837986
  33       0.4224339410088
  34     -0.16009120543253
  35      0.34723734222927
  36      0.30025337725228
  37      -0.1115553519494
  38     0.005106621412302
  39    -0.0078935768261554
  40    -0.0074155802470286
  41    -0.0028415743441203
  42    -0.0029767969833462
  43     0.014059849887533
  44     0.014961225370494
  45    -0.0017765778598469
  46    -0.00073566718868588
  47    0.0004588939114052
  48    -0.055650838361677
  49    -0.054090521605303
  50    -0.00098924356835428
  51    -0.00014249954281226
  52    -0.0019067240872591
  53     0.012608393952222
  54    -0.021440977345174
  55    -0.0035769591921788
  56    0.00086807821452455
  57    -0.0023437394268351
  58    0.00094206631005671
  59    -0.00025397629856776
  60    -0.010855827940391
  61    -0.003060648631615
  62     0.005102132886677
  63    -0.005033480125493
  64    -0.005548202886418
  65    0.0079712266178722
  66    -0.0048704175376574
  67    0.00020798875622195
  68    0.00025444788169519
  69    4.0476971104818e-05
  70    0.00030355493421799
  71    -0.00038491019016831
  72    -0.0089951219855796
  73    -0.011306087692902
  74    0.0030830225195091
  75    -0.00099808572563557
  76    0.00097776014140368
 Sym= A
 Ene=               6
 Spin= Alpha
 Occup=    1.00000
   1    -0.0020497395829412
   2      -0.0030832402675
   3      0.01005273188106
   4    0.00029128224921112
   5    0.00022553186970615
   6     0.002469599247965
   7     0.029243718701785
   8    -0.013273727044756
   9    -0.009466239184109
  10     0.021607196706598
  11    -0.0069562431456015
  12    -0.016758385352838
  13    -0.0073022854113182
  14     0.021546328162885
  15    0.00027448253941426
  16    -0.026000998817759
  17     -0.07956673792131
  18     0.035958073879298
  19    -0.011923239798286
  20    0.0044712234197395
  21     0.025542964453037
  22    -0.002095183580348
  23    -0.0037728354159604
  24    0.00071605503599448
  25    -0.0012072568856256
  26    -0.00094318038218528
  27    -0.00079205772465788
  28    6.0146168993175e-05
  29    -0.00091071384046761
  30    0.00044821684966469
  31     0.011230641708857
  32    -0.0034374650197685
  33    0.0018142584459691
  34    -0.0072092037322047
  35    -0.0057495839082671
  36    0.00019061324679734
  37    -0.0096153279813227
  38    0.00027011109766835
  39    -0.00048787629816879
  40    0.00028145944569064
  41    -6.3873082731114e-05
  42    3.0384451499241e-05
  43    0.0098231488311287
  44     0.012155448052531
  45    0.0030851276021552
  46    -0.00027808099748664
  47    0.0014240623631143
  48    -0.012900181909841
  49     0.022095476028063
  50    -0.0037006457487911
  51    0.0016620655152514
  52    -0.0019379195498304
  53     0.051549404741913
  54     0.051947895552108
  55    -0.0011573203347085
  56    0.0016978309692814
  57    -0.00065473782529254
  58    -0.0012261849007979
  59     0.011396083779993
  60     0.022796284599137
  61      0.50949367462191
  62    -0.055979391053141
  63     -0.42523382675157
  64      0.36148739114673
  65    -0.041768623322943
  66     -0.30097018876473
  67    -0.0065155790765617
  68    0.0016850113961692
  69    0.0061581611066207
  70    0.0022497855416232
  71    -0.0085466137617897
  72    -0.010278735011298
  73    -0.011695906352504
  74    -0.0017651944059867
  75    9.5676160265336e-05
  76    0.00072685397943541
 Sym= A
 Ene=               7
 Spin= Alpha
 Occup=    1.00000
   1    -0.00089676452636803
   2    -0.0039788153953021
   3    -0.010837313815182
   4    -0.00025085780006726
   5    -0.0034121315340242
   6    -0.0012251371172727
   7     0.015888476633659
   8    0.0053493790078758
   9     0.023580651345442
  10    -0.017094829887092
  11    -0.014097019447301
  12      0.01001608049294
  13    -0.024663030824868
  14     0.010801361364094
  15    -0.00059432069340736
  16    -0.020255428702296
  17    -0.051433713647651
  18     0.026875695419232
  19    -0.011460562532686
  20    6.3893589708421e-05
  21    0.0064544804048479
  22    0.0012764157708088
  23    0.00041837420834793
  24    -0.00017361018444958
  25    0.0011954408963757
  26    4.1763144953988e-05
  27    -0.0011351697756552
  28    0.0012558871864671
  29    0.00055450481990397
  30    0.0033226890002381
  31    0.0052475960698121
  32    -0.005640306375213
  33    0.00027918020162836
  34    -0.0040159129976748
  35    -0.0017334632926289
  36    -0.00068817710585454
  37      -0.0049011806428
  38    0.00023304116672868
  39    -0.00053026348766212
  40    0.00025358435110402
  41    -0.00038197496556816
  42    3.9987203669482e-05
  43     0.011221778637802
  44     0.016266920488631
  45    0.00032703124850984
  46    0.00076985065407135
  47    0.0011445003159488
  48    -0.0091661763056766
  49     0.017618186461255
  50    -0.0024060427528578
  51     0.001773261165175
  52    -0.00028996400626252
  53    -0.025913523938466
  54    -0.024661534991957
  55    -0.0012448452196416
  56    -0.0010503156562679
  57    -0.00019708958411378
  58    -0.0010649968358967
  59     0.022247123017294
  60     0.034895314386216
  61      0.37365662964397
  62      0.37975217668513
  63      0.39959169548351
  64      0.26519021996874
  65       0.2671127682167
  66      0.28427040410846
  67    0.0061226314291568
  68    0.0060531075447063
  69    -0.0028070783203843
  70    0.0081526478488804
  71     -0.00339768919096
  72     0.057218425062777
  73     0.058032065927439
  74    -0.00061322572026827
  75    0.0013554180999796
  76    -0.0015966567413944
 Sym= A
 Ene=               8
 Spin= Alpha
 Occup=    1.00000
   1    0.0031858011021614
   2     -0.13870221403118
   3     0.015626571623528
   4     0.090772080642008
   5     -0.24011114911477
   6      0.13862733822177
   7     0.025498828016834
   8    -0.039440168138941
   9     0.024305613109313
  10    0.0090954481333919
  11    -0.014533208948031
  12     0.039504243234202
  13     0.028188107678318
  14     0.026266110153594
  15    0.00052607679018479
  16     0.018557635877244
  17    -0.015978097383027
  18    -0.021894622873834
  19    0.0086414743485215
  20    0.0033582240949485
  21    -0.0077206027725998
  22    -0.0079630299808627
  23    0.0047657399418462
  24    -0.00044038583102995
  25    -0.0052163454311894
  26    -0.0034234151872466
  27    -0.0038000526972067
  28    0.0097955722442323
  29    -0.00044965119063833
  30    -0.0032467412345524
  31     -0.00413198646331
  32     0.006741869141931
  33    -0.0009779284338139
  34    0.0068889750384631
  35    0.0086785610264909
  36    0.00060978109702782
  37    0.0033294055113142
  38    -9.0036633328929e-05
  39    0.00043705704265356
  40    -0.00034934558122026
  41    0.00032981593194563
  42    -2.9688548650022e-05
  43    -0.011573941219387
  44    -0.019857021880873
  45    -0.00077825253020138
  46    0.0015439557128419
  47    -0.000553263642218
  48     0.016549308672258
  49     0.031522829922753
  50    -0.0010567265043432
  51    0.00023617749516721
  52    0.00045960842449695
  53     0.014868662068576
  54     0.015120712082721
  55    0.0011561347794441
  56    -0.0076757034426971
  57    0.0060671008497093
  58    0.0074495499470002
  59     -0.22649899815737
  60     -0.20990666434946
  61     -0.13267074930838
  62      0.38177510704508
  63     -0.21972435827136
  64    -0.086728808745666
  65      0.25009662863033
  66     -0.14366260949277
  67    0.0032669535143238
  68    -0.0050430544895785
  69     0.013523095455214
  70     0.010147378178433
  71    0.0088883730553753
  72     0.016940071700963
  73     0.022159282852922
  74    0.0015599189509236
  75    -0.0092738691053431
  76    0.0033857852838263
 Sym= A
 Ene=               9
 Spin= Alpha
 Occup=    1.00000
   1    0.00051116031972519
   2     0.018457997719211
   3    -0.016128302989154
   4     0.021776759890923
   5    0.0063086380641469
   6    0.0041769223219709
   7    0.0076788809126589
   8    -0.00018850463018764
   9    -0.0098748802207608
  10    0.0050195470860483
  11    -0.011062672651461
  12    0.00030946249798141
  13    -0.00062667424702063
  14    -0.0003606313915067
  15    0.0031401506765024
  16     -0.13788222988787
  17     0.016112623777924
  18    -0.090201964655974
  19    -0.00027794132190899
  20     -0.27795753524865
  21    -0.025315072120991
  22    0.0012371795304419
  23    -0.046560120758652
  24    -0.049098950507229
  25     -0.02995186184287
  26    0.00073364809105445
  27    -0.0054445592131385
  28    -0.00051284596668295
  29    0.0074459755246758
  30     -0.22650300963548
  31     -0.20988165533497
  32      0.13281064360721
  33    0.00050950483983361
  34      0.44044856306209
  35     0.086778731160619
  36    0.00058916929321642
  37      0.28842262766989
  38    -0.017126178208617
  39    -0.010226963211488
  40    -7.7166697474891e-05
  41    -0.0016435745409276
  42    -7.4481864804549e-05
  43     0.017892447144146
  44     0.022334926649781
  45    -0.0015897450085588
  46    -0.0016103300143623
  47    -0.0096907311684377
  48     0.015530592486231
  49     0.015273557322507
  50    -0.0011661393123896
  51    0.0013411098454583
  52    -0.0096624890365429
  53     0.015237255471015
  54     0.031124135191248
  55    0.00099966782539793
  56    0.0004968479868725
  57    4.6697978559105e-05
  58    -0.00045009112445789
  59    -0.0032448647054752
  60    -0.0041236632804854
  61    -0.0067427303700668
  62    0.0055014422980297
  63    -0.0042309391845723
  64    -0.008676730476266
  65    0.0032586594922852
  66    -0.00098749332120823
  67    3.8514286056837e-05
  68    0.00023722965352141
  69    -0.00023667957160943
  70    0.00040394989921499
  71    -0.00036533566503478
  72    -0.010247433926784
  73     -0.01932570848612
  74    0.00082873840109143
  75    0.00036374622470278
  76    0.0016307879849147
 Sym= A
 Ene=              10
 Spin= Alpha
 Occup=    1.00000
   1    -0.0066029550118149
   2    -0.068820183384133
   3    -0.032118197435188
   4     0.030542493047669
   5    -0.080854122932166
   6     0.047378739311905
   7    0.00077831652968823
   8    -0.0048472964024379
   9    0.0036877808893922
  10    0.0014391645749875
  11    -0.00080399307164665
  12    0.0046961623316378
  13    0.0042484155646485
  14    0.0019125453389216
  15    0.00017564374104162
  16    0.0009392813696847
  17    -0.00069690124442552
  18    -0.0037052380983044
  19    -0.0064101558837312
  20    0.0048967910528012
  21    -0.015534276649463
  22    -0.016912415747756
  23    0.0078362729656639
  24    0.00019396634562378
  25    -0.002119669591825
  26    -0.00012476478171478
  27    -0.00071001414975078
  28    0.0038217870645366
  29    -3.3882477678092e-05
  30    -0.00082079172999914
  31    -0.0031879270309147
  32    0.0024515623060033
  33    0.00092272122211127
  34    0.00065769801815734
  35    0.0039960593503208
  36    0.0022725166931382
  37    -0.0001066900826291
  38    5.4165938463049e-06
  39    0.00018207663871206
  40    -1.3761091806745e-06
  41    0.00014091466294691
  42    7.414733216025e-05
  43    -0.001451521041436
  44    -0.0096149330033655
  45    -0.000107351970178
  46    0.00059325611031217
  47    -0.00015238635777679
  48    0.00012077805308181
  49     0.026914783344048
  50    -0.00086963128205052
  51    -0.00017196546484792
  52    0.00032762534507211
  53    -0.0018872926824075
  54     0.013219853614037
  55    0.0012120472351431
  56    -0.0036723447507382
  57    0.0019621218926364
  58    -0.002042199633519
  59      0.43784950090804
  60      0.52280716774232
  61      -0.1282565800209
  62       0.2465261608316
  63     -0.16091994635148
  64    -0.088416682386689
  65      0.17050054438538
  66     -0.11197182621346
  67    0.0012128832269632
  68    -0.0024651047810071
  69    0.0056051737829037
  70    0.0038591850776364
  71     0.004062667657213
  72    -0.0044496367056067
  73     0.014072770306577
  74    0.0013348733963716
  75    -0.003663646881456
  76    0.0022073954059496
 Sym= A
 Ene=              11
 Spin= Alpha
 Occup=    1.00000
   1    0.00018150732203567
   2    0.00096221339673046
   3    9.1168805620192e-06
   4     0.004241189358108
   5    0.0010214152389763
   6    -0.0083355522291338