[Molden Format]
made by pyscf v[2.0.1]
[Atoms] (AU)
C   1   6     0.00000000000000     0.00000000000000     0.00000000000000
C   2   6     2.85207482267819     0.00000000000000     0.00000000000000
F   3   9     3.65415199667903     0.00000000000000     2.45977207315200
H   4   1     3.58561868306314    -1.66499644088808    -0.96128614334650
H   5   1     3.58561868306314     1.66499644088808    -0.96128614334650
H   6   1    -0.73354386038494    -1.92257228669300     0.00000000000000
F   7   9    -0.80207717400084     1.22988603657600     2.13022510286915
H   8   1    -0.73354386038494     0.96128614334650    -1.66499644088808
[GTO]
1 0
 s    8 1.00
                  6665  0.00069158396281299
                  1000  0.0053257961529341
                   228   0.027060721042034
                 64.71    0.10165684614077
                 21.06     0.2745748236174
                 7.495    0.44829431892377
                 2.797    0.28490261071525
                0.5215   0.015194859206082
 s    8 1.00
                  6665  -0.00029326965268655
                  1000  -0.0023180354739745
                   228  -0.011499786038565
                 64.71  -0.046826727009787
                 21.06   -0.12846616875047
                 7.495   -0.30126627246289
                 2.797   -0.25563070233011
                0.5215      1.093793361012
 s    1 1.00
                0.1596                   1
 p    3 1.00
                 9.439   0.056979251590039
                 2.002    0.31320721150073
                0.5456    0.76037674173753
 p    1 1.00
                0.1517                   1
 d    1 1.00
                  0.55                   1

2 0
 s    8 1.00
                  6665  0.00069158396281299
                  1000  0.0053257961529341
                   228   0.027060721042034
                 64.71    0.10165684614077
                 21.06     0.2745748236174
                 7.495    0.44829431892377
                 2.797    0.28490261071525
                0.5215   0.015194859206082
 s    8 1.00
                  6665  -0.00029326965268655
                  1000  -0.0023180354739745
                   228  -0.011499786038565
                 64.71  -0.046826727009787
                 21.06   -0.12846616875047
                 7.495   -0.30126627246289
                 2.797   -0.25563070233011
                0.5215      1.093793361012
 s    1 1.00
                0.1596                   1
 p    3 1.00
                 9.439   0.056979251590039
                 2.002    0.31320721150073
                0.5456    0.76037674173753
 p    1 1.00
                0.1517                   1
 d    1 1.00
                  0.55                   1

3 0
 s    8 1.00
                 14710  0.00072067370873197
                  2207  0.0055504869689163
                 502.8   0.028254207662589
                 142.6    0.10639582836653
                 46.47    0.28668420124307
                  16.7    0.44843796582416
                 6.356    0.26464118141135
                 1.316   0.015326060993048
 s    8 1.00
                 14710  -0.00032119389049893
                  2207  -0.0025461915683188
                 502.8  -0.012643359507821
                 142.6   -0.05195749170489
                 46.47   -0.14344713812646
                  16.7   -0.33243762329603
                 6.356   -0.21865906750347
                 1.316     1.0955904138622
 s    1 1.00
                0.3897                   1
 p    3 1.00
                 22.67   0.064834021493887
                 4.977    0.34053535983101
                 1.347    0.73464640679382
 p    1 1.00
                0.3471                   1
 d    1 1.00
                  1.64                   1

4 0
 s    3 1.00
                 13.01   0.033498726389998
                 1.962    0.23480080117413
                0.4446     0.8136829578829
 s    1 1.00
                 0.122                   1
 p    1 1.00
                 0.727                   1

5 0
 s    3 1.00
                 13.01   0.033498726389998
                 1.962    0.23480080117413
                0.4446     0.8136829578829
 s    1 1.00
                 0.122                   1
 p    1 1.00
                 0.727                   1

6 0
 s    3 1.00
                 13.01   0.033498726389998
                 1.962    0.23480080117413
                0.4446     0.8136829578829
 s    1 1.00
                 0.122                   1
 p    1 1.00
                 0.727                   1

7 0
 s    8 1.00
                 14710  0.00072067370873197
                  2207  0.0055504869689163
                 502.8   0.028254207662589
                 142.6    0.10639582836653
                 46.47    0.28668420124307
                  16.7    0.44843796582416
                 6.356    0.26464118141135
                 1.316   0.015326060993048
 s    8 1.00
                 14710  -0.00032119389049893
                  2207  -0.0025461915683188
                 502.8  -0.012643359507821
                 142.6   -0.05195749170489
                 46.47   -0.14344713812646
                  16.7   -0.33243762329603
                 6.356   -0.21865906750347
                 1.316     1.0955904138622
 s    1 1.00
                0.3897                   1
 p    3 1.00
                 22.67   0.064834021493887
                 4.977    0.34053535983101
                 1.347    0.73464640679382
 p    1 1.00
                0.3471                   1
 d    1 1.00
                  1.64                   1

8 0
 s    3 1.00
                 13.01   0.033498726389998
                 1.962    0.23480080117413
                0.4446     0.8136829578829
 s    1 1.00
                 0.122                   1
 p    1 1.00
                 0.727                   1

[5d]
[7f]
[9g]

[MO]
 Sym= A
 Ene=               0
 Spin= Alpha
 Occup=    1.00000
   1    -0.00019702977642387
   2    6.4251503784731e-05
   3    0.0028592594516473
   4    0.0003918804084539
   5    -9.119179294971e-06
   6    -1.9452139873011e-05
   7    0.0013244850566495
   8    1.1503357824515e-05
   9     4.33963901491e-05
  10    3.5463785431828e-05
  11    -0.0001183505341846
  12    3.2543487091653e-06
  13    -5.5733987074716e-05
  14    -2.2853487027009e-07
  15       1.0021091764959
  16    0.0049125306770966
  17    -0.0084525119728064
  18    0.00032448048139863
  19    -5.7780663878747e-05
  20    0.00066944564357499
  21    0.0011402179544586
  22    -2.7726911341062e-05
  23    0.00037777368939852
  24    9.4884501439027e-05
  25    -1.0849729616505e-05
  26    2.0393858604587e-05
  27    -0.00013099086455554
  28    -1.3123589533107e-05
  29    0.00014420008528427
  30    0.00063868187167506
  31    0.0001290275783069
  32    -0.00010326784068613
  33    -1.463391738917e-06
  34    -0.00035549644185347
  35    0.00016263509849979
  36    4.353180244424e-07
  37    0.00075506217305604
  38    -0.00018192881945805
  39    -0.00011086970949622
  40    3.734307867374e-07
  41    -2.4468719318255e-05
  42    5.7179074701307e-07
  43    0.00059179362447086
  44    0.0013838665354735
  45    -2.62745188011e-05
  46    -0.00016335462547434
  47    -0.00017779538966837
  48    0.00064878219018963
  49    0.0014165676306899
  50    -4.1074019784972e-05
  51    0.00013390847024914
  52    -0.0001504575980462
  53    -9.5895153019962e-05
  54    0.00011962604694661
  55    6.5510870339263e-05
  56    3.2196275963705e-05
  57    -9.6490676787912e-06
  58    -2.4681739155034e-05
  59    -3.1584448692519e-05
  60    -5.9245841798463e-05
  61    8.0929779824073e-06
  62    -3.1241376442762e-06
  63    -9.7987683192276e-06
  64    0.00013792605921111
  65    2.9498055787256e-05
  66    5.8549649588343e-05
  67    -1.896878353002e-05
  68    -1.1870865686146e-05
  69    -1.4012097452054e-06
  70    3.6226740603314e-05
  71    -8.2459030567903e-06
  72    -6.7865392202798e-05
  73    0.00011630774421664
  74    6.0619190648585e-05
  75    -3.979982440253e-05
  76    4.1197980344872e-05
 Sym= A
 Ene=               1
 Spin= Alpha
 Occup=    1.00000
   1       1.0021090725216
   2     0.004914531066932
   3    -0.0084513555230052
   4    -0.00032593112847095
   5    0.00038458167410549
   6    0.00054930894925128
   7    -0.0011407377630116
   8    0.00021279628006263
   9     0.000312706097023
  10    0.00010297275586049
  11    1.6014534179079e-05
  12    4.1388684638366e-06
  13    -0.00012640411577278
  14    -5.8821414269436e-06
  15    -0.0001970690271121
  16    6.4064071279347e-05
  17    0.0028590465812261
  18    -0.00039151446177821
  19    -8.3251389846433e-07
  20    -2.1537576040087e-05
  21    -0.0013242821595672
  22    1.2137352516363e-05
  23    4.3340127765498e-05
  24    3.666047142162e-05
  25    0.00010267061588679
  26    7.7971309505496e-07
  27    -5.500336870769e-05
  28    5.9014937413214e-05
  29    -2.4680020170582e-05
  30    -3.156705648798e-05
  31    -5.9191780995638e-05
  32    -8.1169141213703e-06
  33    -2.207791644688e-06
  34    -1.0123713440765e-05
  35    -0.00013799941077584
  36    3.6528335130354e-06
  37    6.5406261807194e-05
  38    -2.0747545331364e-05
  39    1.4395933646877e-05
  40    2.1454693802169e-06
  41    3.5195072639396e-05
  42    -1.2093354979938e-06
  43    -6.85343771162e-05
  44    0.0001160731238279
  45    -6.0573428698891e-05
  46    5.5052496793178e-05
  47    1.5753403066686e-05
  48    -9.510498215786e-05
  49    0.00011996979788145
  50    -6.5531087358464e-05
  51    -3.2745982437687e-05
  52    7.7661648462566e-06
  53    0.00065040031065338
  54    0.0014169705438377
  55    4.1098386842367e-05
  56    -0.00019102510781305
  57    -6.3397045766268e-05
  58    0.0001441830160555
  59    0.00063861940727536
  60    0.00012892270721612
  61    0.00010322382541556
  62    -0.0001763878060506
  63    -0.00030846537854093
  64    -0.00016258014782886
  65     0.000377214381126
  66    0.00065429602716926
  67    -0.00010809900557197
  68    9.5738862941588e-05
  69    -0.0001472128251904
  70    1.8130187979644e-05
  71    5.5938289276407e-05
  72    0.00059422346415365
  73    0.0013845079689469
  74    2.6340272970422e-05
  75    5.2426032086745e-05
  76    -0.00023548095259123
 Sym= A
 Ene=               2
 Spin= Alpha
 Occup=    1.00000
   1    1.6736115529249e-05
   2    2.8754284958772e-06
   3    -0.00094869244008941
   4    -0.00011419683154744
   5    1.413801620757e-05
   6    -9.3865691201979e-06
   7    -0.00040312982100399
   8    -0.00011482216968269
   9    -0.00028049628425647
  10    6.7163240588878e-05
  11    -2.2298829886902e-05
  12    1.6192511373314e-05
  13    2.2790501860232e-06
  14    -1.5147216271365e-05
  15    -0.00017305134330185
  16    0.00022258970049601
  17    0.0029297656511244
  18    0.00033793289756455
  19    -1.4840317268204e-06
  20    0.00085266250009326
  21    -6.5387226835689e-06
  22    5.0467639538126e-05
  23    0.0013912929086704
  24    0.00014353056597041
  25    9.0230404003657e-05
  26    -2.5563896121292e-06
  27    2.2240525870539e-05
  28    -1.2166614244826e-05
  29       1.0009606462196
  30    0.00087865743944579
  31    -0.0051113759430151
  32    -0.00060458995440202
  33    1.8020677588083e-05
  34    -0.0019883721697455
  35    0.00023897300062488
  36    2.5589818581097e-05
  37    0.00068603782603077
  38    -0.00014453407258462
  39    -8.3977671041813e-05
  40    -1.588097063567e-06
  41    -6.7129047391721e-06
  42    -1.9270403099678e-06
  43    -0.00025551977318811
  44    -0.00010722596107981
  45    -6.1882669001904e-06
  46    -5.6439069989685e-06
  47    -0.00015360707584117
  48    -0.00026552321487114
  49    -0.00017386796680351
  50    -1.5250270006375e-06
  51    4.2101824199343e-06
  52    -0.00015580185392401
  53    8.4300108678918e-05
  54    -0.0001289857257401
  55    -2.2411616023267e-05
  56    1.6520933393792e-05
  57    1.4958222969888e-05
  58    -1.991764411604e-05
  59    -4.5109318559933e-05
  60    0.00013179587064951
  61    -1.4051542746659e-05
  62    2.8074914485072e-05
  63    1.2926871216352e-05
  64    -2.959999666356e-05
  65    -5.153025887173e-05
  66    -1.9384023265276e-05
  67    7.9019807060165e-06
  68    3.5427612548898e-06
  69    -7.0783402682973e-06
  70    -1.1716367633758e-05
  71    4.7943950177374e-06
  72    3.4627020450916e-05
  73    0.00014253690076084
  74    4.5225881038602e-05
  75    2.2585988965552e-05
  76    3.7286642628289e-05
 Sym= A
 Ene=               3
 Spin= Alpha
 Occup=    1.00000
   1    -0.00017301886262191
   2    0.00022459860512631
   3    0.0029295993894227
   4    -0.00033933766391783
   5    0.00042683750561147
   6    0.00073683861228983
   7    3.9535159180063e-06
   8    0.00065287493943123
   9    0.0012297544581592
  10    8.1472840645346e-05
  11    -7.2989664079165e-05
  12    0.00011874980547263
  13    -1.2623170232622e-05
  14    -5.6471473768178e-05
  15    1.6732552635778e-05
  16    3.8550724695271e-06
  17    -0.00094540007104297
  18    0.00011231919854831
  19    -1.7306847235231e-05
  20    -7.6659039985917e-07
  21    0.00040061248708038
  22    -4.1908306141374e-05
  23    -0.00030048213766125
  24    5.3569429577385e-05
  25    2.6806631929947e-05
  26    4.3230439303552e-05
  27    -5.4514644191546e-06
  28    -1.9053192188511e-06
  29    -1.9831169923352e-05
  30    -4.469528623506e-05
  31    0.00013190477882745
  32    1.338936675777e-05
  33    -1.7659238962302e-05
  34    2.5246965865664e-05
  35    2.9635309751243e-05
  36    3.5181763719844e-05
  37    -4.2726573356117e-05
  38    2.2256375747218e-06
  39    -5.4126122424875e-06
  40    4.3877233819515e-06
  41    -1.5085972108779e-05
  42    2.4200225722579e-06
  43    3.4336145665653e-05
  44    0.00014179096487664
  45    -4.5345927696978e-05
  46    -9.3775889778008e-07
  47    4.3602814260991e-05
  48    8.4041305631573e-05
  49    -0.00012873184207801
  50    2.2393483738023e-05
  51    -6.7686312966484e-06
  52    2.1277674636059e-05
  53    -0.00026312144534312
  54    -0.00017283905091227
  55    1.6571826170765e-06
  56    -8.1400120386474e-05
  57    -0.0001328472951027
  58       1.0009606797678
  59    0.00087651151921446
  60    -0.0051144346851098
  61    0.00057759685864042
  62    -0.00099603607358676
  63    -0.0017319018365922
  64    -0.00025791687068598
  65    0.00033067612882778
  66    0.00059379595099791
  67    -8.9544569419435e-05
  68    7.4035868858784e-05
  69    -0.00011054718931271
  70    2.4687566792819e-05
  71    4.0657500887219e-05
  72    -0.00025662842870659
  73    -0.00010978984420795
  74    6.2907302608069e-06
  75    -7.2119294982067e-05
  76    -0.00013578296670762
 Sym= A
 Ene=               4
 Spin= Alpha
 Occup=    1.00000
   1    2.1086760435365e-06
   2    -0.011638587169904
   3    -0.037216158929671
   4    -0.021375406831979
   5    -0.0038235804127724
   6    -0.0047105101530847
   7     -0.03501230650227
   8    -0.016709907815147
   9    -0.00032222371462455
  10    0.0004833956688665
  11    -0.00080377061650044
  12    0.00042706842341212
  13    -0.00020238534653383
  14    -0.002235703770466
  15    -0.0011469516730313
  16    0.00015507775291483
  17     0.019637041853977
  18    -0.0015942954423793
  19    -0.0051740651398334
  20    0.0010494517353371
  21    -0.026715929353269
  22     0.028939286631301
  23    -0.0066923520071757
  24    0.0079460014796969
  25    -0.012887538975128
  26     0.033140395792644
  27    -0.0057244859567257
  28    0.0067737116849381
  29    -0.00035489879110998
  30    0.0065946964526688
  31      0.01281615439272
  32     -0.27699531177959
  33       0.6014529033235
  34     0.087163172527794
  35     -0.19504384096973
  36      0.42427383362657
  37     0.059384335378709
  38    -0.0025214445711851
  39    0.0048105637643189
  40    -0.011000230545417
  41    0.0017820577788713
  42    -0.0036462846298494
  43     0.060109274238011
  44     0.063198045128246
  45    0.0003799131479082
  46    -0.0010602539171617
  47    0.0020524935955957
  48    -0.037472770755443
  49    -0.038659168237194
  50    0.0012441546537681
  51    -0.00092949079331099
  52    -0.00074867751073324
  53    -0.00063313743222366
  54    -0.011876789786456
  55    0.00012826041679326
  56    -6.0425674516558e-05
  57    -0.0010172818211839
  58    -0.0017242979483495
  59    -0.0061512780530973
  60    0.0045130898988543
  61    -0.009371976363078
  62    -0.00029345953672688
  63    -0.0022759606439796
  64    0.0014274679438882
  65    0.0026900406986225
  66    -0.0012244070683121
  67    -0.00058640985220314
  68    0.00080174797129509
  69    -0.00023003888648243
  70    0.0010138046381424
  71    5.7585461174205e-05
  72    0.0052959019077069
  73    0.0057731771800507
  74    -0.0016928861009558
  75    1.3185594464766e-05
  76    -2.4888595019002e-05
 Sym= A
 Ene=               5
 Spin= Alpha
 Occup=    1.00000
   1    0.0010401114966096
   2     0.025793670102697
   3     0.070984042379294
   4     0.045195201284142
   5    -0.0052136106362421
   6    0.0050206400812273
   7     0.040623146731676
   8    -0.0030385487139167
   9    -0.027135516029387
  10    -0.0019990558548326
  11    0.00091190991385386
  12    0.0014232596949062
  13    0.00080855034465677
  14    -3.3750826931418e-05
  15    0.0016507261671067
  16    -0.0004157605920749
  17    -0.015482118147648
  18    -0.0005938489101146
  19    -0.0025786365409038
  20    -0.001513374268036
  21     0.033316666902647
  22     0.013598701158681
  23     0.014062446872567
  24    -0.016350133292394
  25     0.025840662896418
  26     0.015867387947602
  27       0.0129016651993
  28    0.0039095951618207
  29    0.0011241032191729
  30    0.0029447998079514
  31    -0.0084271871994406
  32      0.57307460514416
  33      0.28949685673458
  34      -0.1793844481087
  35       0.4047031794297
  36      0.20501887002071
  37     -0.12310319732067
  38    0.0057623571548211
  39    -0.0098088434778197
  40    -0.0051925875005883
  41    -0.003110914212871
  42    -0.0021224960185973
  43    -0.0014426436409611
  44    0.0019060246130465
  45    -0.0019633395484788
  46    -0.0003696679634732
  47    -0.0004713208752003
  48    -0.048302460261649
  49    -0.046176583872814
  50    -0.0014868068655676
  51    -0.00034018339377324
  52    -0.0020889599274873
  53    0.0021999292069845
  54    -0.010334993972187
  55    0.0019641132541278
  56    -0.00017071746484585
  57    0.0018341851479661
  58    5.7822582640246e-06
  59    0.0041993944165164
  60     0.011995384198782
  61    0.0070470177316749
  62    -0.005722587770697
  63    0.0011629115009486
  64    -0.0012050109773682
  65    -0.0051063405583969
  66    -0.0030381446961011
  67    0.00046303241643002
  68    -0.0012186647633369
  69    0.00055656168309784
  70    -0.0007331170363054
  71    0.00023740895005427
  72    -0.015243393612248
  73     -0.02610248388591
  74    0.0016690839171989
  75    0.0014952558721997
  76    -0.00054086303088779
 Sym= A
 Ene=               6
 Spin= Alpha
 Occup=    1.00000
   1    -0.0017418003206856
   2    0.00032241499523547
   3     0.020852706752265
   4    0.00029979737808953
   5    0.0021237169879804
   6    0.0041675708956663
   7     0.040560689776845
   8    -0.0046121394151905
   9    -0.014458630699722
  10     0.011577945854961
  11     0.025422672321078
  12    0.0095154808891026
  13    -0.017799990926295
  14     0.013014434190076
  15    -0.00095385256676519
  16    -0.027498112321579
  17    -0.079037336567645
  18     0.049910091103193
  19    -0.006870005164036
  20    -0.0038746486752635
  21      0.05018289047435
  22     0.014847751395913
  23     0.020478970273059
  24    0.00053368975554717
  25    0.0012079896009188
  26    0.0018135171745755
  27    -0.0017191549036281
  28    -0.00016754729685557
  29    -0.00058932653805282
  30    -0.0060425292494456
  31    -0.0098272180086087
  32    0.0097672167562194
  33    -0.0054644108894017
  34    0.0011875589717894
  35    -0.001599517398417
  36    -0.0036792731924921
  37    0.0050634541749051
  38    -0.0010595232029585
  39    -0.0011198855911953
  40    0.00028080731789391
  41    0.00077877879030465
  42    -0.00088199669292945
  43     0.017185992786261
  44     0.026900987610883
  45     0.002111780162043
  46    0.0015104001789098
  47    -0.00024426893874904
  48    -0.0022988155626215
  49    0.0055662076097099
  50    0.0018085125948444
  51    -0.0011789652014203
  52    -0.0017161979166005
  53     0.031122497477158
  54     0.029659448980591
  55    -0.0018885161570762
  56    0.00073356608837072
  57    0.0015828419935729
  58    -0.0010935262376983
  59    -0.008649854786837
  60    0.0025389188587203
  61      0.63461531633527
  62      0.15693885459372
  63      0.13133806907472
  64      0.44790113741273
  65      0.10939354206176
  66     0.088929048752826
  67    -0.003713254871916
  68    -0.0098608756347625
  69    -0.0036768650567905
  70     0.004953829846835
  71    -0.0048009954770253
  72     0.020514582513657
  73      0.01896594821567
  74    -0.0020245488292021
  75    0.00070693196231834
  76    0.00095711939417482
 Sym= A
 Ene=               7
 Spin= Alpha
 Occup=    1.00000
   1    0.00037772023976567
   2    -0.0011369029515473
   3    -0.013677644522792
   4    -0.0012595607177704
   5    -0.0025019721549367
   6    -0.0011621436398216
   7    -0.013793002265248
   8     0.029518493778404
   9    -0.015505709071408
  10    -0.028771798152801
  11    0.00098592401970548
  12     0.017059739947965
  13    -0.014388280015433
  14    -0.0084954546111284
  15    -0.00038408906316791
  16    0.0022238319294301
  17     0.011264605410757
  18    -0.0049109662017632
  19    -0.0034354886928489
  20    0.0047662735634341
  21    -0.019356402282233
  22    -0.0098172290313852
  23     0.016376193086797
  24    -0.00045220067483275
  25    -0.0012552929807951
  26    0.00057945399351266
  27    -0.00050394281326127
  28    0.0014631358061885
  29    0.0016088689931254
  30    0.0043625554628253
  31    -0.0081235955995759
  32    -0.0064251898596261
  33    -0.0010371280129663
  34    0.0024685766776772
  35    0.00086325775829714
  36     0.001800786305523
  37    0.0013975653326263
  38    0.00041753634144909
  39    0.00035951102269669
  40    -1.9396448091099e-05
  41    -0.00069391716347215
  42    5.1709766787989e-05
  43    0.00040894056160888
  44    0.0035419599672199
  45    -0.0010486858722471
  46    0.00056273613306035
  47    -6.488180005718e-05
  48    -0.00044651760030092
  49     0.014216895409048
  50    0.00078678485576548
  51    4.9404197034768e-05
  52    0.00035419756193731
  53     0.048598749277217
  54     0.051035851040182
  55    0.00056917241904851
  56    -0.00032037955199403
  57     0.001609652036755
  58    -0.00011531294370389
  59    0.00059296919159646
  60    0.00012279682040246
  61    -0.069638043613084
  62      0.56662697983478
  63     -0.34605046626981
  64    -0.048609838340072
  65       0.4000863494823
  66     -0.24348653597524
  67    0.0094561641219354
  68    -0.00095446069280111
  69    -0.0061303442053975
  70     0.004638479414014
  71    0.0042554989236337
  72    -0.052975661395699
  73    -0.058570760335393
  74    -0.00015054515098479
  75    -0.0019449121386216
  76    -0.00087428105816416
 Sym= A
 Ene=               8
 Spin= Alpha
 Occup=    1.00000
   1    0.0023773589110918
   2     -0.14261543194859
   3     0.014863850869914
   4     0.091835001384777
   5     -0.14170133590323
   6     -0.24140519558249
   7     0.030458563441411
   8    -0.026044025548991
   9    -0.044328559977236
  10    -0.029140474106998
  11     0.024718885931434
  12    -0.039830659875585
  13    0.0060941516086335
  14     0.015093671664553
  15    -0.00091925445638382
  16    0.0095846602188838
  17    -0.0094800334433778
  18    -0.027172406230362
  19    0.0033583116545764
  20    -0.0029479538296692
  21    -0.0060672000903492
  22    0.0011693198371201
  23    -0.00013430095986205
  24    0.0045307507719514
  25    0.0096845912477139
  26    0.0011880073567508
  27    -0.0022578084843318
  28    0.0053511707047232
  29    -6.4727280303124e-06
  30    0.0021332539603464
  31    0.0041755440479219
  32    -0.0043540489395326
  33    -0.00038732663890805
  34    -0.0083560898073162
  35    -0.0032592125605452
  36    0.00039929358142657
  37    -0.0046297538519695
  38    -0.000111571390035
  39    0.00034122687457464
  40    2.4572976911221e-05
  41    -0.00026015268730217
  42    0.00019896964802935
  43    -0.017681049837317
  44    -0.016057224496294
  45    -0.00047313431317604
  46    -8.9270200672465e-06
  47     0.001116012954591
  48    0.0037052286939036
  49    -0.0014693061390214
  50    -0.0017673407245452
  51    -0.00067862804045907
  52    0.00069120965826477
  53     0.016071676366045
  54     0.021023269352624
  55    0.0014676566724941
  56    -0.0061240378007314
  57    -0.0075701899988543
  58    0.0072759906264868
  59     -0.22398479613688
  60      -0.2027614628736
  61     -0.13460167378262
  62      0.21699001109774
  63      0.38111510736198
  64    -0.088510291755268
  65      0.14116153236475
  66      0.24865827954347
  67    -0.010720567960507
  68    0.0088988202916038
  69    -0.013623462567074
  70    0.0021964411507516
  71    0.0050053897316187
  72     0.013408039229173
  73     0.019255624901222
  74    0.0015060062495312
  75    -0.0034487127942217
  76    -0.0093360677084092
 Sym= A
 Ene=               9
 Spin= Alpha
 Occup=    1.00000
   1    -0.00097649299351057
   2     0.010256838825471
   3    -0.0090783535416074
   4     0.026531134194888
   5    -0.003603243780163
   6    -0.0020305448901224
   7    0.0058477858812378
   8    -0.0008123527038857
   9    6.6445472490431e-05
  10     0.004244245350701
  11    -0.011044345217342
  12    0.0017634786857187
  13    -0.0024345157464084
  14    -0.00022771019607526
  15    0.0023208201427705
  16     -0.14187834582128
  17     0.015237694899591
  18    -0.091140601071258
  19    0.0021817582179701
  20     -0.28058941933718
  21    -0.030145680718989
  22    0.00047927727499401
  23     -0.05167998349464
  24    -0.049428465619739
  25    -0.028914884102238
  26    0.00069390471000041
  27    -0.0056287740820574
  28    0.00067528458212652
  29    0.0072672098925083
  30     -0.22404256511855
  31     -0.20278358167568
  32      0.13483292288448
  33    0.0026985699764536
  34      0.43847125566139
  35     0.088597577755345
  36    0.0021054195096967
  37      0.28589736534854
  38    -0.017378074153721
  39    -0.010221023800859
  40    -0.00028083788780135
  41    -0.001662324480458
  42    -0.00011662823199431
  43     0.014156843205182
  44     0.019471444051938
  45    -0.0015151064679755
  46    -0.0016051937756675
  47    -0.0097886998350271
  48     0.016948256458027
  49     0.021165896591541
  50    -0.0014869098285516
  51    0.0014276564827254
  52    -0.0095887992856311
  53    0.0035856632564981
  54    -0.0015968288165904
  55    0.0017427301101345
  56    0.00096386641025276
  57    0.00022721239674093
  58    -1.222151719417e-05
  59    0.0021084436449131
  60    0.0041562129021299
  61    0.0043604537286526
  62    -0.0038518929343306
  63    -0.0073459014155354
  64     0.003315462569451
  65    -0.0027254662609685
  66    -0.0036906232441808
  67    2.6741993930915e-05
  68    -0.000391093158329
  69    -0.00021087439257671
  70    -0.00019161091220192
  71    9.281212580433e-06
  72     -0.01600875259296
  73    -0.015490802714232
  74    0.00052424516769249
  75    0.00049792099968014
  76    0.0010654078438782
 Sym= A
 Ene=              10
 Spin= Alpha
 Occup=    1.00000
   1    -0.0073439152157064
   2    -0.070382849869085
   3    -0.029204239457859
   4     0.030448917689663
   5    -0.047143327800302
   6    -0.081177037257706
   7     0.007294070846104
   8    -0.0064899027307982
   9    -0.010182479151977
  10    -0.0024695605323466
  11    0.0031419524618432
  12    -0.0045729579695426
  13    0.00020705090774431
  14    0.0018592533305255
  15    -0.0013222735557077
  16    -0.0034961069017167
  17      0.00565417806059
  18    -0.00028492762989876
  19    -0.0036345424423101
  20    -0.0061507814618982
  21    -0.0062987321382429
  22    0.0007295195919762
  23    -0.00096240050155588
  24    0.0014291185393159
  25    0.0047859642889835
  26    -2.1340336222049e-05
  27    -0.00099804976321023
  28    0.0022733894544914
  29    -0.00026587555790346
  30    -0.00084564886586562
  31    0.00098933572288387
  32    0.0033863178414005
  33    -0.0017416294184221
  34    -0.0037352408423689
  35    0.00060173169233802
  36    0.00020968190646004
  37    -0.00076311577894198
  38    -0.00025031000327872
  39    -0.00024716473151114
  40    9.0263528139364e-05
  41    2.7249761245709e-05
  42    -0.0001165322992997
  43    -0.0017758218844965
  44    -0.0022778321226824
  45    -0.00067515182112723
  46    0.00075622394693882
  47    0.00044093752001948
  48    -0.00094579371980935
  49    -0.00073581571350776
  50    2.8673161369934e-05
  51    -0.00034156697180398
  52    -0.00024991948212248
  53    -0.0017833732800575
  54     0.015982943752361
  55    0.0011506041655474
  56    -0.0017973930863145
  57    -0.0034161139923309
  58    -0.0018402270116766
  59       0.4404686858647
  60      0.52811709427425
  61    -0.082752109603035
  62       0.1502921181417
  63        0.266714301535
  64    -0.057416004110843
  65      0.10374402844532
  66      0.18307929140869
  67    -0.0046860126563283
  68    0.0033184785600447
  69    -0.0057124694664634
  70    0.0010034329555839
  71    0.0019322347657933
  72    -0.0015202752960922
  73     0.016841845171029
  74    0.0011911228378691
  75    -0.001987956205147
  76    -0.0034236724158921
 Sym= A
 Ene=              11
 Spin= Alpha
 Occup=    1.00000
   1    -0.0013184265789804
   2    -0.0030657273333161
   3     0.007234388481592
   4    0.0012651448767525
   5    0.00016784716529556