[Molden Format]
made by pyscf v[2.0.1]
[Atoms] (AU)
C   1   6     0.00000000000000     0.00000000000000     0.00000000000000
C   2   6     2.85207482267819     0.00000000000000     0.00000000000000
F   3   9     3.65415199667903     0.00000000000000     2.45977207315200
H   4   1     3.58561868306314    -1.66499644088808    -0.96128614334650
H   5   1     3.58561868306314     1.66499644088808    -0.96128614334650
H   6   1    -0.73354386038494    -0.65755844904870     1.80662699073290
F   7   9    -0.80207717400084     2.42240260828301    -0.42713493797885
H   8   1    -0.73354386038494    -1.23580564461298    -1.47277581671572
[GTO]
1 0
 s    8 1.00
                  6665  0.00069158396281299
                  1000  0.0053257961529341
                   228   0.027060721042034
                 64.71    0.10165684614077
                 21.06     0.2745748236174
                 7.495    0.44829431892377
                 2.797    0.28490261071525
                0.5215   0.015194859206082
 s    8 1.00
                  6665  -0.00029326965268655
                  1000  -0.0023180354739745
                   228  -0.011499786038565
                 64.71  -0.046826727009787
                 21.06   -0.12846616875047
                 7.495   -0.30126627246289
                 2.797   -0.25563070233011
                0.5215      1.093793361012
 s    1 1.00
                0.1596                   1
 p    3 1.00
                 9.439   0.056979251590039
                 2.002    0.31320721150073
                0.5456    0.76037674173753
 p    1 1.00
                0.1517                   1
 d    1 1.00
                  0.55                   1

2 0
 s    8 1.00
                  6665  0.00069158396281299
                  1000  0.0053257961529341
                   228   0.027060721042034
                 64.71    0.10165684614077
                 21.06     0.2745748236174
                 7.495    0.44829431892377
                 2.797    0.28490261071525
                0.5215   0.015194859206082
 s    8 1.00
                  6665  -0.00029326965268655
                  1000  -0.0023180354739745
                   228  -0.011499786038565
                 64.71  -0.046826727009787
                 21.06   -0.12846616875047
                 7.495   -0.30126627246289
                 2.797   -0.25563070233011
                0.5215      1.093793361012
 s    1 1.00
                0.1596                   1
 p    3 1.00
                 9.439   0.056979251590039
                 2.002    0.31320721150073
                0.5456    0.76037674173753
 p    1 1.00
                0.1517                   1
 d    1 1.00
                  0.55                   1

3 0
 s    8 1.00
                 14710  0.00072067370873197
                  2207  0.0055504869689163
                 502.8   0.028254207662589
                 142.6    0.10639582836653
                 46.47    0.28668420124307
                  16.7    0.44843796582416
                 6.356    0.26464118141135
                 1.316   0.015326060993048
 s    8 1.00
                 14710  -0.00032119389049893
                  2207  -0.0025461915683188
                 502.8  -0.012643359507821
                 142.6   -0.05195749170489
                 46.47   -0.14344713812646
                  16.7   -0.33243762329603
                 6.356   -0.21865906750347
                 1.316     1.0955904138622
 s    1 1.00
                0.3897                   1
 p    3 1.00
                 22.67   0.064834021493887
                 4.977    0.34053535983101
                 1.347    0.73464640679382
 p    1 1.00
                0.3471                   1
 d    1 1.00
                  1.64                   1

4 0
 s    3 1.00
                 13.01   0.033498726389998
                 1.962    0.23480080117413
                0.4446     0.8136829578829
 s    1 1.00
                 0.122                   1
 p    1 1.00
                 0.727                   1

5 0
 s    3 1.00
                 13.01   0.033498726389998
                 1.962    0.23480080117413
                0.4446     0.8136829578829
 s    1 1.00
                 0.122                   1
 p    1 1.00
                 0.727                   1

6 0
 s    3 1.00
                 13.01   0.033498726389998
                 1.962    0.23480080117413
                0.4446     0.8136829578829
 s    1 1.00
                 0.122                   1
 p    1 1.00
                 0.727                   1

7 0
 s    8 1.00
                 14710  0.00072067370873197
                  2207  0.0055504869689163
                 502.8   0.028254207662589
                 142.6    0.10639582836653
                 46.47    0.28668420124307
                  16.7    0.44843796582416
                 6.356    0.26464118141135
                 1.316   0.015326060993048
 s    8 1.00
                 14710  -0.00032119389049893
                  2207  -0.0025461915683188
                 502.8  -0.012643359507821
                 142.6   -0.05195749170489
                 46.47   -0.14344713812646
                  16.7   -0.33243762329603
                 6.356   -0.21865906750347
                 1.316     1.0955904138622
 s    1 1.00
                0.3897                   1
 p    3 1.00
                 22.67   0.064834021493887
                 4.977    0.34053535983101
                 1.347    0.73464640679382
 p    1 1.00
                0.3471                   1
 d    1 1.00
                  1.64                   1

8 0
 s    3 1.00
                 13.01   0.033498726389998
                 1.962    0.23480080117413
                0.4446     0.8136829578829
 s    1 1.00
                 0.122                   1
 p    1 1.00
                 0.727                   1

[5d]
[7f]
[9g]

[MO]
 Sym= A
 Ene=               0
 Spin= Alpha
 Occup=    1.00000
   1    -0.00019456523667889
   2    7.7229257342987e-05
   3    0.0028659039869558
   4    0.0003834459355581
   5    3.7796630178249e-07
   6    8.1441833993072e-06
   7     0.001468440258805
   8    0.00014517558640077
   9    -0.0002269382415576
  10    2.4223967762765e-05
  11    -0.00011394411361897
  12    -6.774233501991e-06
  13    -4.4396225575432e-05
  14    -2.9515358865353e-06
  15       1.0021186065471
  16    0.0049340296749366
  17    -0.0086057232391427
  18    0.00035705429801315
  19    -8.3047657807715e-05
  20    0.00072512198576815
  21    0.0012002557143967
  22    -6.3335702055168e-05
  23    0.00048120348135203
  24    0.00010230930130617
  25    -1.8029779513512e-05
  26    1.8740978986312e-05
  27    -0.00014122130610678
  28    -1.3417816689484e-05
  29    0.00015681260569651
  30    0.00066451510568713
  31    5.670828255561e-05
  32    -9.7933408873991e-05
  33    -3.7473948863649e-06
  34    -0.00035387676244287
  35    0.00016317949937837
  36    1.7086264268039e-05
  37    0.00077303798249991
  38    -0.00018650246226016
  39    -0.00011412570595022
  40    -1.9535721483293e-06
  41    -2.4843040650305e-05
  42    -6.1393151892935e-08
  43    0.00060195563385836
  44    0.0013978994633263
  45    -2.6790470794371e-05
  46    -0.00015965554677011
  47    -0.00018592276427981
  48    0.00067854527385016
  49    0.0014271988646862
  50    -4.2315622884546e-05
  51    0.00011596245142137
  52    -0.00015634311177612
  53    -6.7602845387329e-05
  54    0.00038166794609294
  55    0.00010412757951339
  56    -1.2118793479154e-06
  57    -1.9215298058451e-05
  58    -1.0866847904094e-06
  59    6.3198175214854e-06
  60    -0.0001761893382882
  61    5.6480768452669e-06
  62    4.8931727123229e-06
  63    -7.6593863819223e-06
  64    2.966443908641e-05
  65    2.8403749559369e-05
  66    3.4260654907216e-05
  67    -2.1689652575098e-05
  68    4.6605366530479e-06
  69    -1.6573924964042e-06
  70    2.0209860394656e-05
  71    -8.6733041593541e-06
  72    -7.9781950441862e-05
  73    4.4563975521762e-05
  74    4.6404863097838e-05
  75    2.6151080708967e-05
  76    4.8220869673776e-05
 Sym= A
 Ene=               1
 Spin= Alpha
 Occup=    1.00000
   1       1.0021185154972
   2    0.0049357956240451
   3    -0.0086047569796202
   4    -0.0003584013508144
   5    0.00069846076612065
   6    -0.00020792530647469
   7    -0.0012007845198206
   8    0.00046238782585543
   9    -0.00014601247271996
  10    6.6633302180232e-05
  11    1.0080845951995e-05
  12    1.1497992729776e-05
  13    -0.00016187931318014
  14    2.020490892276e-05
  15    -0.00019461052514227
  16    7.7405287965547e-05
  17    0.0028659214668863
  18    -0.00038289746697151
  19    9.503870933845e-06
  20    -1.3555894793734e-06
  21    -0.0014681768252563
  22    -0.00019768743649149
  23    0.00018222995139905
  24    2.825899836747e-05
  25    -1.6875165042776e-05
  26    -6.0147067546427e-06
  27    -4.2039321428449e-05
  28    0.00011282045216219
  29    -1.0923229761576e-06
  30    6.3067136819806e-06
  31    -0.00017616708733002
  32    -5.6394979476262e-06
  33    -6.7228400383427e-06
  34    6.1493332301933e-06
  35    -2.9707282665124e-05
  36    3.8559651331471e-05
  37    2.2023804496264e-05
  38    -6.6136933764806e-06
  39    9.3427221838226e-06
  40    1.389279028226e-06
  41    2.890815497277e-05
  42    -3.0874919498482e-06
  43    -8.0481117089855e-05
  44    4.4236377011516e-05
  45    -4.6357664345235e-05
  46    5.2033200122566e-05
  47    1.7352692314298e-05
  48    -6.6131886383324e-05
  49    0.00038227278315975
  50    -0.00010416456782399
  51    -1.9211717500758e-05
  52    2.193548330108e-06
  53    0.0006800229200241
  54    0.0014275842123565
  55    4.2340508612975e-05
  56    -0.00013381622166975
  57    0.00014118665713164
  58    0.00015679298819458
  59    0.00066447008296904
  60    5.658934567253e-05
  61    9.7875262538894e-05
  62    -0.00034901467502996
  63    5.774785875483e-05
  64    -0.00016315515099454
  65    0.00076441806920884
  66    -0.00011740065628942
  67    0.00010624863012171
  68    -1.9761105672332e-05
  69    5.7652018204617e-05
  70    0.00014415497835097
  71    0.00011241191660086
  72    0.00060407404357818
  73    0.0013984976210728
  74    2.6837106025908e-05
  75    -0.00021072501814525
  76    -0.00012478152806032
 Sym= A
 Ene=               2
 Spin= Alpha
 Occup=    1.00000
   1    -0.00016646887553114
   2    0.00022358735660753
   3    0.0028018828577826
   4    -0.00033538162468676
   5    0.00081933594666257
   6    -0.00014677307884603
   7    -4.6588526305682e-05
   8    0.0013340717622041
   9    -0.00024455138123957
  10    -7.6542444537929e-05
  11    8.0092343952595e-06
  12    -4.6699019662998e-05
  13    -0.00011527201629471
  14    -8.1199362803298e-05
  15    3.3942124140535e-05
  16    3.5399599236157e-05
  17    -0.00096529109738855
  18    0.00013286423521899
  19    1.5200068742438e-05
  20    -1.3320773904448e-06
  21    0.00029628190763708
  22    -0.00030567759518881
  23    0.00012752307113963
  24    -3.6016063283182e-05
  25    -6.0679186022921e-06
  26    -4.1274596153484e-05
  27    -6.3323487331161e-05
  28    3.2279277171894e-05
  29    1.4386267710241e-05
  30    3.2897264956697e-05
  31    4.2758592105182e-06
  32    -2.9171385479266e-05
  33    3.7228651595394e-06
  34    -1.0346738397172e-05
  35    3.9007660939041e-05
  36    2.3240145561214e-06
  37    -2.0985877289929e-05
  38    1.0263309702832e-05
  39    -9.2808737166437e-07
  40    -6.7307092474904e-06
  41    -6.1075943526067e-06
  42    5.3784122015418e-06
  43    6.4477930205769e-05
  44    8.3217434950928e-05
  45    -2.7476444795966e-05
  46    4.3032505721847e-05
  47    -2.7069029330631e-05
  48    2.775049882523e-05
  49    0.00011453847110901
  50    5.1144793235282e-05
  51    -6.2211137931581e-06
  52    -6.990534561785e-06
  53    -0.00025821336822992
  54    -0.00013846171812798
  55    2.580292286528e-06
  56    -0.00015146228008969
  57    3.5326114422297e-05
  58       1.0009598685783
  59     0.000965157097612
  60    -0.0049877336987151
  61    0.00067818693684465
  62    -0.0018595293734782
  63    0.00033198538516498
  64    -0.00018904060243027
  65      0.00069986423191
  66    -0.00011602744769883
  67    6.957727858137e-05
  68    -1.3916608392637e-05
  69    4.5060798218537e-05
  70    0.00011871945892411
  71    7.5135087911456e-05
  72    -0.00024786675367567
  73    -0.00015527579063467
  74    4.4909301607194e-06
  75    -0.00015264419332213
  76    2.0028921431173e-05
 Sym= A
 Ene=               3
 Spin= Alpha
 Occup=    1.00000
   1    3.3928046623852e-05
   2    3.5731240648341e-05
   3    -0.00096583627723081
   4    -0.00013361953335753
   5    1.2346816203703e-06
   6    1.700115627066e-05
   7    -0.00029659953069544
   8    7.2598618429296e-05
   9    -0.000322360149184
  10    8.1887573578889e-05
  11    -3.2895133749599e-05
  12    -1.735087965091e-05
  13    4.665316658479e-06
  14    3.7103853367576e-07
  15    -0.00016644717824997
  16    0.00022191545190778
  17    0.0028008937678785
  18    0.00033443252964501
  19    -2.2576006473365e-06
  20    0.00083312793160516
  21    4.5911170949887e-05
  22    -9.1292713151721e-06
  23    0.0013565216451071
  24    0.00014568472167892
  25    8.0940190258205e-05
  26    -1.4118026299355e-06
  27    1.2805827272244e-05
  28    6.2418008234961e-06
  29        1.000959853374
  30     0.000966675671188
  31    -0.0049857912328651
  32    -0.00068580527930436
  33    5.8405411430337e-06
  34    -0.001885391526104
  35    0.00018370394202806
  36    8.5405222122372e-06
  37    0.00071178044409816
  38    -0.00014483014180785
  39    -7.6288689984957e-05
  40    1.3990716304539e-06
  41    -4.9404261526668e-06
  42    6.4818788629272e-07
  43    -0.0002487322523113
  44    -0.0001550614618534
  45    -4.43505996029e-06
  46    -6.9160168900101e-06
  47    -0.0001538430006966
  48    -0.00025932402071924
  49    -0.00013842226573476
  50    -2.5346200214267e-06
  51    8.6213014591661e-06
  52    -0.00015534231217721
  53    2.9489608296177e-05
  54    0.00011537039428158
  55    -5.1027408865365e-05
  56    -7.9215356588333e-06
  57    -5.005463806795e-06
  58    1.4386968138641e-05
  59    3.2901885511762e-05
  60    4.2709347249256e-06
  61    2.921542081448e-05
  62    -9.5419909201326e-06
  63    5.4246600178151e-06
  64    -3.8954575152215e-05
  65    -2.0295418911526e-05
  66    5.7649566643903e-06
  67    2.4634123867261e-06
  68    -5.451572490357e-06
  69    -8.3451488814762e-06
  70    -1.0623319787351e-05
  71    -9.9559969243446e-09
  72    6.3893140527982e-05
  73    8.3149682421432e-05
  74    2.7412551806222e-05
  75    -1.9202221301005e-05
  76    4.7097259139437e-05
 Sym= A
 Ene=               4
 Spin= Alpha
 Occup=    1.00000
   1    -0.0014803582586497
   2    -0.023271515422204
   3    -0.049709564383382
   4    -0.031121889218931
   5     -0.00312515278858
   6    -0.0095965115758704
   7    -0.013102023566616
   8    0.0060320633372349
   9     0.018622874783196
  10    0.0012357808449994
  11    -0.00057719614701234
  12    0.0010239893281076
  13    -0.00096797368397489
  14    -0.0017375641385502
  15    -0.0010691183640396
  16    -0.0026611874944816
  17    -0.0071461675982991
  18    0.0011445088099075
  19    -0.0055080531499545
  20    -0.0023059580103416
  21    -0.018708336707324
  22     0.019714880675952
  23    -0.010572422532908
  24     0.011939494913057
  25    -0.018087420975429
  26     0.026911865651993
  27    -0.009712475780027
  28    0.0061461295439062
  29    -0.0010963794773151
  30     0.017572884242883
  31     0.030571093601231
  32     -0.42088016345618
  33      0.49620814373914
  34      0.14239556645663
  35     -0.29844939817413
  36      0.35182682962641
  37     0.098590596503665
  38    -0.0044037422678635
  39    0.0068025826504563
  40    -0.0088265299092884
  41    0.0025937217182107
  42    -0.0032327785224075
  43     0.059883324165185
  44     0.058115616680321
  45    0.00063324887440266
  46    -0.00048979131376991
  47    0.0021689866163852
  48     -0.02229314388359
  49    -0.021323130392148
  50    0.0014506966272157
  51    -0.00068110024456722
  52    -0.00046715352899734
  53    -0.011769658350434
  54    0.0022686695047544
  55    0.00094848255980205
  56    -0.0001772522563702
  57    0.0017071840361111
  58    0.00056079164085114
  59    0.0023730219756841
  60    0.0023446624904472
  61    0.0038052337663048
  62    -0.0029977003319383
  63    -0.0013791355991319
  64    0.0023041958765647
  65    -0.0035570931566839
  66    -0.0025267160451019
  67    0.00016340214459268
  68    -1.8308913100842e-05
  69    0.00028360155909309
  70    -0.00030752968442107
  71    0.00060901887938465
  72     0.013844218616792
  73     0.027671290989441
  74    -0.00056399155195143
  75    0.0013169572259811
  76    0.00080595690039514
 Sym= A
 Ene=               5
 Spin= Alpha
 Occup=    1.00000
   1    0.0017546429336553
   2    0.0032396056748069
   3    -0.0059748016701696
   4    -0.00035076108340418
   5    0.0013599819257015
   6    -0.0025306664345784
   7    -0.024451655433512
   8    0.0092450441382556
   9     0.018751028033149
  10    -0.009790537282733
  11    -0.001632909945864
  12     0.024719784837964
  13     0.012870675544097
  14    -0.021119764456673
  15    -0.00060222244068606
  16     0.022448069008505
  17     0.075986136550522
  18    -0.034022278076993
  19     0.013882879220117
  20    -0.0051418246079169
  21    -0.020533968228558
  22    0.0046973238697559
  23    -0.011556344709826
  24    0.00036647750342849
  25    0.0012406812973073
  26    0.00033868790280605
  27    0.0009737616644293
  28    -0.0003496877662573
  29    0.00012435008599137
  30    -0.00076653598029595
  31    -0.0023994520011068
  32    0.0025203901754956
  33    -0.0024401956208366
  34    0.0041995903733833
  35    0.0043207681383024
  36    -0.00079159310009586
  37    0.0056419856787309
  38    -0.00020908154358496
  39    0.0004409684645097
  40    -0.000304876362135
  41    6.9322386068762e-05
  42    -8.9731288793255e-05
  43    -0.014471818928601
  44    -0.014354215202632
  45    -0.0029799464620208
  46    -0.00023986278225826
  47    -0.00090497488283077
  48     0.010942008710331
  49      -0.0297007239179
  50    0.0040650445850494
  51    -0.0015190254795621
  52     0.001170507868296
  53    -0.053317173180666
  54     -0.05292392542238
  55    0.0011285930893224
  56    -0.0017524125296051
  57    -0.00020488329622012
  58    0.0011728520953228
  59    -0.016319924623646
  60    -0.027827603226446
  61     -0.46915285379199
  62    -0.073224479362093
  63      0.46707957900393
  64     -0.33311000591581
  65    -0.050061029240683
  66      0.33061030347863
  67    0.0023614719481633
  68    0.0017116607231438
  69    -0.0084381584180737
  70    -0.0041217115255066
  71    0.0080190369368412
  72     0.015464966588183
  73     0.017470029859506
  74    0.0016079361253625
  75    0.00040729998723862
  76    -0.00087385705953284
 Sym= A
 Ene=               6
 Spin= Alpha
 Occup=    1.00000
   1    -0.00060763422538651
   2     0.022982850160819
   3     0.076513353626662
   4     0.034021617431339
   5    -0.0031145978288608
   6     0.014535045297227
   7     0.020506693988811
   8    -0.010785069805594
   9    0.0066178990127537
  10    -0.0010687088871777
  11    0.00061964498087705
  12    6.8009473118734e-05
  13    0.00010690239301861
  14    -0.0012732496067965
  15    0.0018274059277686
  16    0.0026268945625865
  17    -0.0064259219650258
  18    -7.1387624018586e-05
  19    -0.0049924160118179
  20    0.0030394608302717
  21     0.024261257659498
  22      0.01898973724542
  23    0.0062505055637547
  24     -0.01366515945172
  25     0.020638689342569
  26     0.023947368165275
  27     0.010722914500489
  28    0.0051754350873076
  29     0.001204765695115
  30    -0.018611244605659
  31    -0.030619313843327
  32      0.47008280829914
  33      0.44538205292128
  34      -0.1555111267435
  35      0.33382992099208
  36      0.31572933886206
  37     -0.10832534019296
  38    0.0049301653692531
  39    -0.0075952633961335
  40    -0.007847966048946
  41    -0.0026656577373278
  42    -0.0030555250452576
  43     0.016282937021582
  44     0.017737024443727
  45    -0.0016615189090997
  46    -0.00080457212986778
  47    0.00061685537980819
  48    -0.056127761575118
  49    -0.053800051924772
  50    -0.0010290515790648
  51    -0.00033364903371912
  52    -0.0017682507786374
  53     0.011173444917574
  54     -0.02998501416727
  55    -0.0040700522300592
  56    0.0008892051169037
  57    -0.0017439979199388
  58    0.00012161140750793
  59    -0.0007623379432136
  60    -0.0022946098817354
  61    -0.0024588946946863
  62    0.0036667015191413
  63    -0.0031301444095435
  64    -0.0042201802930864
  65     0.005413903795676
  66    -0.0017487875269877
  67    0.00012887466860543
  68    0.0001658885133994
  69    -0.00023506210865016
  70    0.00025538583045686
  71    -0.00041996627738249
  72    -0.014034719970569
  73    -0.014332325178597
  74     0.003008029659499
  75    -0.00091156618692376
  76    -4.4636471263942e-05
 Sym= A
 Ene=               7
 Spin= Alpha
 Occup=    1.00000
   1    -0.00098444664996765
   2    -0.0031783027881701
   3    -0.0074518645563825
   4    -0.00071761330479605
   5    -0.0012729615816437
   6    -0.0020921455609483
   7      0.01900139586351
   8    -0.0065062257643252
   9     0.022320878788831
  10    -0.0052697449000933
  11    -0.0092905093050116
  12     0.023139031027906
  13    -0.019703425571753
  14     0.016722332772404
  15    -0.0014731807840191
  16    -0.022802794870461
  17    -0.049665312451799
  18     0.031444223235429
  19    -0.010673514552682
  20    -0.0015147758804367
  21     0.013375066968219
  22     0.019124706181284
  23    0.0026536016221516
  24    -7.8697605877642e-05
  25    0.0014467923294723
  26    0.0007774681548448
  27    -0.0017479684620674
  28    0.00076165277722614
  29    0.00055222685500187
  30    0.0023266455808593
  31    0.0021992780766081
  32    -0.0037313637107799
  33    -0.0018402715197052
  34    -0.0025643570145975
  35    -0.0022522793047414
  36    -0.0030455973452478
  37    -0.0029506734603325
  38    0.00010668302422227
  39    -0.00060426320473174
  40    0.00028169089027911
  41    -0.00034098069481465
  42    -8.6006592542319e-05
  43     0.014916578838293
  44     0.028157023689559
  45    0.00054770655200869
  46    0.0010620760872003
  47    0.0011903206196106
  48    -0.011918164521564
  49    0.0021421343662106
  50    -0.00096228185719199
  51    0.0016446327731595
  52    -0.00048537288308134
  53    -0.020737093656853
  54    -0.020606312354808
  55    -0.0013977162380422
  56    -0.00048199691197759
  57    -0.00059932214687073
  58    -0.0010707468615151
  59     0.014763780738321
  60     0.027269181035967
  61      0.42369999621591
  62      0.22440552932009
  63      0.46244428493677
  64      0.30040852522016
  65      0.15674048706898
  66      0.32810105686097
  67    0.0024182190698718
  68    0.0043765974007427
  69    -0.0074579687345657
  70    0.0065411647377204
  71    -0.0062078650077695
  72     0.056463114209209
  73     0.056725923369855
  74    -0.00077073264034719
  75    0.0019313026777664
  76    -0.0010151430835241
 Sym= A
 Ene=               8
 Spin= Alpha
 Occup=    1.00000
   1    0.0031715407007466
   2     -0.13896665555401
   3     0.012964741955266
   4     0.090729944022137
   5     -0.27323707567016
   6     0.047941699434512
   7     0.024534580162508
   8    -0.047404790585911
   9    0.0074632917718709
  10     0.026974276261844
  11    -0.005274550632786
  12     0.015624715730518
  13     0.038336852123605
  14     0.029788305964682
  15    0.00027957569656629
  16     0.016434891652361
  17    -0.013690724623819
  18     -0.02274807240373
  19    0.0089307590434006
  20    0.0013431662127992
  21    -0.010377312811708
  22    -0.0045769200651231
  23      0.00414989736961
  24    -0.0005291500075399
  25    -0.0018607491284488
  26    -0.0023270168256277
  27    -0.0042974352130489
  28     0.010903096103708
  29    -0.00021232994722754
  30    -0.0018296450992075
  31    -0.0024610416894984
  32    0.0040511988692474
  33    -0.00059302531731219
  34    0.0030618739562137
  35     0.007527188550088
  36    -0.00013651119052522
  37    0.0010687493605261
  38    -5.9139475684939e-05
  39    0.00049856845614244
  40    -0.00029300924493499
  41    0.00030193030211832
  42    7.001009453745e-05
  43     -0.01727155754075
  44    -0.020456131623836
  45    -0.0001441533060216
  46    0.0014085296500542
  47    -0.00077011886120405
  48     0.016266043082369
  49     0.028708085642026
  50    -0.00090439214068332
  51    -0.000154098816541
  52    3.4192212458258e-05
  53     0.015691106823112
  54     0.017240547910961
  55    0.0012608666899756
  56    -0.0092909605056932
  57    0.0032277928547285
  58    0.0073341437559837
  59     -0.22648484773981
  60     -0.20858832977742
  61     -0.13244362742225
  62      0.43379399205954
  63    -0.077519240115707
  64    -0.086398530187658
  65      0.28384186991633
  66    -0.050509223927974
  67    0.0091875190478411
  68    -0.0017558812001308
  69    0.0053302589568901
  70     0.013606950582573
  71     0.010020458446719
  72     0.016589380669187
  73     0.020306025323288
  74     0.001516123119106
  75    -0.0098064183401655
  76    7.7739213656735e-05
 Sym= A
 Ene=               9
 Spin= Alpha
 Occup=    1.00000
   1    0.00025133084344925
   2     0.016534191947321
   3    -0.013700054217496
   4     0.022487032010508
   5    0.0023474251642687
   6    0.0064073816559606
   7     0.010300812119768
   8    0.0031130039992411
   9    -0.0060020807409706
  10    0.0045149642179436
  11    -0.011014353466587
  12    -0.0011952501834068
  13    -0.001372583502367
  14    -5.2510666698532e-05
  15    0.0031196772729112
  16     -0.13816722720778
  17     0.013430341345688
  18    -0.090120636913628
  19    -0.0004319896738128
  20     -0.27815539748683
  21    -0.024316717111754
  22    -0.00090852437500789
  23    -0.048268624048881
  24    -0.049114944018172
  25    -0.030160231339655
  26    0.00015126242827484
  27    -0.0056228722791712
  28    3.5585401361931e-05
  29    0.0073289925211051
  30     -0.22649075185243
  31     -0.20853328779843
  32      0.13264217117335
  33    -0.0011247993139663
  34      0.44057480710419
  35     0.086474409015592
  36    -0.00051979112266693
  37      0.28826525339435
  38    -0.017169629735834
  39    -0.010183101687502
  40    -3.449116116313e-05
  41    -0.001628597374293
  42    -9.6381920309639e-06
  43     0.017512895435914
  44     0.020508488703896
  45    -0.0015453329186636
  46    -0.001533429770018
  47    -0.0096379517938547
  48     0.016384078384886
  49     0.017330007866531
  50    -0.0012677164268778
  51    0.0014830883857514
  52    -0.0096887508980566
  53     0.014908087487281
  54     0.028258262617236
  55    0.00084069417324842
  56    -3.8940265511987e-05
  57    -0.00010723980663862
  58    -0.00021382964202216
  59    -0.0018340882437627
  60    -0.0024653247462141
  61    -0.0040529684409391
  62    0.0029365277583546
  63    -0.0010406948158005
  64    -0.007515571651961
  65    0.0010727566753146
  66    -0.00013109782170928
  67    -0.00014995819196239
  68    8.8713025931286e-06
  69    -0.00028004336552774
  70    0.00024653624167066
  71    -0.00050122156096476
  72    -0.015485580827988
  73    -0.019764557967034
  74    0.00021002469293454
  75    -0.00043265240283623
  76    0.0015872892826906
 Sym= A
 Ene=              10
 Spin= Alpha
 Occup=    1.00000
   1    -0.0065660209811556
   2    -0.068967509638207
   3    -0.034943986777553
   4     0.030393147325207
   5    -0.092251541426199
   6     0.016602919710211
   7    -0.00051456063670866
   8    -0.0076494939176578
   9    0.00086235448988033
  10     0.003215860994124
  11    -0.000605790620995
  12    0.0020879888934785
  13    0.0050951132501671
  14    0.0019472305776714
  15    -0.00019843614777815
  16    0.00018339206447084
  17    0.0024590923017642
  18    -0.0035882205452894
  19    -0.0072025917785481
  20     0.002427055543306
  21    -0.017799475482307
  22    -0.013335312725378
  23    0.0077033512896003
  24    0.00042537850241169
  25    -0.00055330015939878
  26    -8.4215690669434e-05
  27    -0.00077690258981674
  28     0.004423028480198
  29    0.00028242794969403
  30    0.00016937609926621
  31    -0.0035259366456256
  32    0.0013056140770863
  33    0.0010118130112253
  34    -0.00016015439953011
  35    0.0041231549781122
  36    0.0018678088986199
  37    -0.00029874855122252
  38    -1.1814818922305e-05
  39    0.00011952070954642
  40    2.040539223548e-05
  41    7.5677227529464e-05
  42    0.00011271352238637
  43    -0.0017760022689504
  44    -0.0073981889312806
  45    -0.00033116848248628
  46    0.0009090867746406
  47    -8.8126140472221e-05
  48    -0.00012619728186298
  49     0.024023256190422
  50    -0.00053816082255859
  51    -0.00021146935161588
  52    0.00033116699711797
  53    -0.0029405634999353
  54     0.012678251652271
  55    0.0011671686178039
  56    -0.0041182415751465
  57    0.00067115124238141
  58    -0.0021283540678397
  59      0.43806235037569
  60      0.52402867381583
  61     -0.12720249824394
  62      0.28966690877086
  63    -0.051402620023292
  64    -0.087668746716587
  65      0.20041688278147
  66     -0.03575811982109
  67    0.0038088903330768
  68    -0.00082962819789158
  69    0.0021286037486192
  70    0.0053924654841931
  71    0.0046360836533647
  72    -0.0031973048550818
  73     0.014382582768304
  74    0.0013929974051608
  75    -0.0040804807156491
  76    0.00082804023553564
 Sym= A
 Ene=              11
 Spin= Alpha
 Occup=    1.00000
   1    -0.00018866301322887
   2    0.00018435233254106
   3    0.0030039400008613
   4    0.0040651289969322
   5    0.0012354824516682
   6    -0.0078202482900364