[Molden Format]
made by pyscf v[2.0.1]
[Atoms] (AU)
C   1   6     0.00000000000000     0.00000000000000     0.00000000000000
C   2   6     2.85207482267819     0.00000000000000     0.00000000000000
F   3   9     3.65415199667903     0.00000000000000     2.45977207315200
H   4   1     3.58561868306314    -1.66499644088808    -0.96128614334650
H   5   1     3.58561868306314     1.66499644088808    -0.96128614334650
H   6   1    -0.73354386038494     0.00000000000000     1.92257228669300
F   7   9    -0.80207717400084     2.13022510286915    -1.22988603657600
H   8   1    -0.73354386038494    -1.66499644088808    -0.96128614334650
[GTO]
1 0
 s    8 1.00
                  6665  0.00069158396281299
                  1000  0.0053257961529341
                   228   0.027060721042034
                 64.71    0.10165684614077
                 21.06     0.2745748236174
                 7.495    0.44829431892377
                 2.797    0.28490261071525
                0.5215   0.015194859206082
 s    8 1.00
                  6665  -0.00029326965268655
                  1000  -0.0023180354739745
                   228  -0.011499786038565
                 64.71  -0.046826727009788
                 21.06   -0.12846616875047
                 7.495   -0.30126627246289
                 2.797   -0.25563070233011
                0.5215      1.093793361012
 s    1 1.00
                0.1596                   1
 p    3 1.00
                 9.439   0.056979251590039
                 2.002    0.31320721150073
                0.5456    0.76037674173753
 p    1 1.00
                0.1517                   1
 d    1 1.00
                  0.55                   1

2 0
 s    8 1.00
                  6665  0.00069158396281299
                  1000  0.0053257961529341
                   228   0.027060721042034
                 64.71    0.10165684614077
                 21.06     0.2745748236174
                 7.495    0.44829431892377
                 2.797    0.28490261071525
                0.5215   0.015194859206082
 s    8 1.00
                  6665  -0.00029326965268655
                  1000  -0.0023180354739745
                   228  -0.011499786038565
                 64.71  -0.046826727009788
                 21.06   -0.12846616875047
                 7.495   -0.30126627246289
                 2.797   -0.25563070233011
                0.5215      1.093793361012
 s    1 1.00
                0.1596                   1
 p    3 1.00
                 9.439   0.056979251590039
                 2.002    0.31320721150073
                0.5456    0.76037674173753
 p    1 1.00
                0.1517                   1
 d    1 1.00
                  0.55                   1

3 0
 s    8 1.00
                 14710  0.00072067370873197
                  2207  0.0055504869689163
                 502.8   0.028254207662589
                 142.6    0.10639582836653
                 46.47    0.28668420124307
                  16.7    0.44843796582416
                 6.356    0.26464118141135
                 1.316   0.015326060993048
 s    8 1.00
                 14710  -0.00032119389049893
                  2207  -0.0025461915683188
                 502.8  -0.012643359507821
                 142.6   -0.05195749170489
                 46.47   -0.14344713812646
                  16.7   -0.33243762329603
                 6.356   -0.21865906750347
                 1.316     1.0955904138622
 s    1 1.00
                0.3897                   1
 p    3 1.00
                 22.67   0.064834021493887
                 4.977    0.34053535983101
                 1.347    0.73464640679382
 p    1 1.00
                0.3471                   1
 d    1 1.00
                  1.64                   1

4 0
 s    3 1.00
                 13.01   0.033498726389998
                 1.962    0.23480080117413
                0.4446     0.8136829578829
 s    1 1.00
                 0.122                   1
 p    1 1.00
                 0.727                   1

5 0
 s    3 1.00
                 13.01   0.033498726389998
                 1.962    0.23480080117413
                0.4446     0.8136829578829
 s    1 1.00
                 0.122                   1
 p    1 1.00
                 0.727                   1

6 0
 s    3 1.00
                 13.01   0.033498726389998
                 1.962    0.23480080117413
                0.4446     0.8136829578829
 s    1 1.00
                 0.122                   1
 p    1 1.00
                 0.727                   1

7 0
 s    8 1.00
                 14710  0.00072067370873197
                  2207  0.0055504869689163
                 502.8   0.028254207662589
                 142.6    0.10639582836653
                 46.47    0.28668420124307
                  16.7    0.44843796582416
                 6.356    0.26464118141135
                 1.316   0.015326060993048
 s    8 1.00
                 14710  -0.00032119389049893
                  2207  -0.0025461915683188
                 502.8  -0.012643359507821
                 142.6   -0.05195749170489
                 46.47   -0.14344713812646
                  16.7   -0.33243762329603
                 6.356   -0.21865906750347
                 1.316     1.0955904138622
 s    1 1.00
                0.3897                   1
 p    3 1.00
                 22.67   0.064834021493887
                 4.977    0.34053535983101
                 1.347    0.73464640679382
 p    1 1.00
                0.3471                   1
 d    1 1.00
                  1.64                   1

8 0
 s    3 1.00
                 13.01   0.033498726389998
                 1.962    0.23480080117413
                0.4446     0.8136829578829
 s    1 1.00
                 0.122                   1
 p    1 1.00
                 0.727                   1

[5d]
[7f]
[9g]

[MO]
 Sym= A
 Ene=               0
 Spin= Alpha
 Occup=    1.00000
   1       1.0021189042502
   2    0.0049375677278161
   3    -0.0085972897339982
   4    -0.0003433847884789
   5    0.00059415082005329
   6    -0.0004525227924212
   7    -0.0011873767321108
   8    0.00041907967381082
   9    -0.00027747922823078
  10    6.1310628102859e-05
  11    1.0636252778529e-05
  12    -7.4253020937782e-06
  13    -0.00016330337077118
  14    2.7746212789227e-05
  15    -0.00019527327142097
  16    7.7392174665485e-05
  17    0.0028666095321092
  18    -0.00037989413102482
  19    9.7263579654776e-06
  20    3.177992471418e-06
  21    -0.0014480049794311
  22    -0.00021069108686629
  23    0.00016582877631691
  24    3.0996158374031e-05
  25    -5.5153436784954e-05
  26    -3.6236777137867e-06
  27    -4.58509885413e-05
  28    0.00010046584004491
  29    -4.8014525970869e-06
  30    -2.287453229174e-06
  31    -0.00015757903212379
  32    7.4025918902644e-08
  33    -3.7609400217065e-06
  34    1.0345868537354e-05
  35    -2.6862963372298e-05
  36    1.4841721807149e-05
  37    6.8788381088092e-06
  38    -3.6234171534024e-06
  39    8.4317840920094e-06
  40    9.7682150077262e-07
  41    2.8233014107754e-05
  42    -7.7150061223899e-07
  43    -9.2808578220232e-05
  44    1.3822128912453e-05
  45    -4.415818247309e-05
  46    4.3514153235282e-05
  47    1.3656200775177e-05
  48    -6.9893527226604e-05
  49    0.00038742562219461
  50    -0.000107664769796
  51    -1.5799477533922e-05
  52    4.8350519156272e-06
  53    0.00068307082785828
  54    0.0014302330385146
  55    4.5968979842953e-05
  56    -7.8774287801296e-05
  57    0.00016900396936935
  58    0.00015934784015738
  59    0.00066916350298656
  60    4.0454059830385e-05
  61    9.8199241616933e-05
  62    -0.00030701606115795
  63    0.00017575256108108
  64    -0.00016714453055422
  65    0.00067563380200269
  66    -0.00038214666788615
  67    4.0816231710146e-05
  68    -5.7889894134359e-05
  69    0.00015031796934286
  70    0.00010672229548405
  71    9.9485528882307e-05
  72    0.00060670544539716
  73    0.0014124982254549
  74    2.3908205041856e-05
  75    -0.0002419379890701
  76    -4.4039896871873e-05
 Sym= A
 Ene=               1
 Spin= Alpha
 Occup=    1.00000
   1    -0.00019516362259977
   2    7.7322146971323e-05
   3    0.0028666786561134
   4    0.00038105265152943
   5    7.4190133767978e-06
   6    5.6132363457098e-06
   7    0.0014484848165354
   8    3.8208546139453e-05
   9    -0.00026592543723322
  10    2.856709419083e-05
  11    -0.00011449284212189
  12    -5.2069319266765e-06
  13    -4.7234863446695e-05
  14    -2.4507151031157e-06
  15       1.0021190022697
  16     0.004935865986016
  17    -0.0085981940743628
  18    0.00034139491413212
  19    -9.4630191174496e-05
  20    0.00074224557359771
  21    0.0011865771091549
  22    -3.0720690797778e-05
  23    0.00050229148529516
  24    0.00010402261046226
  25    -1.8608731000471e-05
  26    2.1006408320212e-05
  27    -0.000138537919291
  28    -2.3056660731579e-05
  29    0.00015937690184116
  30    0.00066926774325947
  31    4.0592610087705e-05
  32    -9.8460276019762e-05
  33    -1.3796951500289e-06
  34    -0.0003538841680138
  35    0.00016707767427878
  36    6.8053823514539e-06
  37    0.0007760459826244
  38    -0.00018719253340592
  39    -0.00011507872253156
  40    -1.6668646685222e-06
  41    -2.4889606414897e-05
  42    3.9151310341743e-07
  43    0.0006044736442971
  44    0.0014118291061135
  45    -2.3874093850889e-05
  46    -0.00015930090142843
  47    -0.00018756963800344
  48    0.00068118316825143
  49    0.0014297366460438
  50    -4.5946373049064e-05
  51    0.00010716416735645
  52    -0.00015277727356679
  53    -7.1397303425738e-05
  54    0.0003867506094376
  55    0.00010764383986882
  56    -3.7088790075691e-06
  57    -1.6001128668695e-05
  58    -4.7944623294801e-06
  59    -2.2437534192641e-06
  60    -0.0001575694310219
  61    -6.0713608909068e-08
  62    7.0293076323697e-06
  63    -8.437861560699e-06
  64    2.679691995474e-05
  65    1.3379751209192e-05
  66    9.4744129775116e-06
  67    -1.8633264887908e-05
  68    4.8888900133737e-06
  69    -9.004877507216e-06
  70    1.9576603421698e-05
  71    -6.932070471328e-06
  72    -9.2521156356782e-05
  73    1.3958334231178e-05
  74    4.4204069607572e-05
  75    3.3587247981276e-05
  76    3.0826178747472e-05
 Sym= A
 Ene=               2
 Spin= Alpha
 Occup=    1.00000
   1    -0.00017021629103014
   2    0.00023670517681616
   3    0.0029363576240813
   4    -0.00034008637086674
   5    0.00074663910732806
   6    -0.00043300354728349
   7    1.2009489116292e-05
   8    0.0012143944228512
   9    -0.00068009107836619
  10    -2.9943283493927e-05
  11    4.1383197847043e-05
  12    -0.00011682440295898
  13    -8.4928521849897e-05
  14    -6.3446010493082e-05
  15    4.2044929906973e-05
  16    4.7236190836172e-05
  17    -0.0010745411415145
  18    0.00012082913404151
  19    3.3081678560986e-05
  20    -6.8496850540722e-06
  21    0.00041234665647452
  22    -0.0003873807601715
  23    0.00015846967590283
  24    -2.2220968416186e-05
  25    -8.2912745810515e-06
  26    -7.1649347331818e-05
  27    -5.0421597134771e-05
  28    3.2796274881866e-05
  29    -5.5450150344837e-06
  30    -4.6812396314943e-06
  31    8.1045264119391e-05
  32    -1.2778527531903e-05
  33    7.3740390222168e-07
  34    -1.326621487557e-05
  35    -5.0472816416472e-05
  36    2.842573766568e-05
  37    -3.0007043376549e-05
  38    6.8976024354623e-06
  39    2.026214380826e-06
  40    -1.2612630871252e-05
  41    -2.1828568252728e-06
  42    1.5259484974953e-06
  43    8.0592247738631e-05
  44    -5.0859470621427e-05
  45    -1.7037934248524e-05
  46    4.0306645582487e-05
  47    -2.6185438904452e-05
  48    3.9488258463556e-05
  49    0.00016932797549974
  50    3.1900973351098e-05
  51    2.908656424145e-07
  52    2.1330629369499e-06
  53    -0.00025887256431051
  54    -0.00015392121758989
  55    2.5945472938372e-06
  56    -0.00013183125364419
  57    8.4931280494402e-05
  58       1.0009626733863
  59    0.00081891708186321
  60    -0.0051865699657363
  61    0.00068697866694085
  62    -0.0017188255644072
  63    0.0010203783000023
  64    -0.00018242608352508
  65    0.00055785560062316
  66    -0.00029594386459071
  67    2.0943977376302e-05
  68    -3.7076034394201e-05
  69    0.00010755307164003
  70    9.0021888493833e-05
  71    6.538787215425e-05
  72    -0.00025705392447006
  73    -0.00013038774066664
  74    4.105236557846e-06
  75    -0.00013880257289561
  76    7.0803777329756e-05
 Sym= A
 Ene=               3
 Spin= Alpha
 Occup=    1.00000
   1    4.1997427176986e-05
   2    4.7234487396597e-05
   3    -0.0010764658118937
   4    -0.00012216602237742
   5    1.082033103372e-05
   6    3.3075152994256e-05
   7    -0.00041126932103454
   8    -5.6274516437134e-05
   9    -0.00041536682393913
  10    8.9461217539473e-05
  11    -3.2966828438066e-05
  12    2.7284242998817e-06
  13    1.3875534055574e-05
  14    -9.3878076372172e-06
  15    -0.00017072667400937
  16    0.0002292943512005
  17    0.0029319261690902
  18    0.00033655210049637
  19    -2.1169174854693e-06
  20    0.0008563496586593
  21    -1.3170050886943e-05
  22    2.0050339851265e-05
  23    0.0013912368048367
  24    0.00014655110491682
  25    7.4501419600895e-05
  26    3.1367096870642e-06
  27    1.6566940358956e-05
  28    -3.6189508861748e-06
  29       1.0009624875282
  30    0.00085552523123238
  31    -0.0051423646193555
  32    -0.00069652899753108
  33    6.7093912543675e-05
  34    -0.0019675799516871
  35    0.00017551377839343
  36    5.2981240033073e-05
  37    0.00065257641475577
  38    -0.00014256083715653
  39    -7.5230960928286e-05
  40    -1.6736010894261e-06
  41    -3.8385971876001e-06
  42    -8.7078711860845e-07
  43    -0.0002543580635277
  44    -0.00012506680306595
  45    -4.1639289569694e-06
  46    -8.280259657289e-06
  47    -0.00015585424344186
  48    -0.00026325355907003
  49    -0.00015570783584385
  50    -2.5795701904932e-06
  51    7.7268294519073e-06
  52    -0.00015711577736644
  53    4.129388077904e-05
  54    0.00017306736868012
  55    -3.1621016120058e-05
  56    2.0708653050646e-06
  57    -9.1381874791492e-07
  58    -5.4960495689523e-06
  59    -4.5714214578337e-06
  60    8.0939074055467e-05
  61    1.2838346423572e-05
  62    -1.1130707417036e-05
  63    7.3360345060125e-06
  64    5.0147409205333e-05
  65    -1.1890777756127e-05
  66    3.9671145246354e-05
  67    1.0038658275035e-05
  68    -3.1759216856477e-07
  69    -1.0552841759412e-05
  70    -4.0300977475677e-07
  71    -2.5019594788601e-06
  72    8.0393679951729e-05
  73    -5.1107518995009e-05
  74    1.7033534593188e-05
  75    -2.448484109323e-06
  76    4.8103546121256e-05
 Sym= A
 Ene=               4
 Spin= Alpha
 Occup=    1.00000
   1    -0.00058289890779342
   2    -0.021751557016117
   3    -0.054707481196858
   4    -0.027981881479693
   5    -0.0054481466209595
   6    -0.010278126312314
   7    -0.007156721292762
   8    0.00099256453914595
   9    0.00084612341142725
  10    0.00076138997988046
  11    -0.00058150325223366
  12    0.00059307611183917
  13    -0.00061791195077604
  14    -0.0018042564522413
  15    -0.0010648704367985
  16    -0.0036926720619406
  17    -0.010203899067833
  18    0.00059639996369859
  19    -0.0059941426175507
  20    -0.0038417375517359
  21    -0.016760393773296
  22      0.02127952365736
  23      -0.0077083243311
  24     0.011083669653189
  25    -0.017275966573225
  26      0.02784009235825
  27    -0.0091303647617795
  28    0.0064968988181603
  29    -0.0011400966180123
  30     0.025908827201904
  31     0.039597388569404
  32     -0.39115067022618
  33      0.52087376228508
  34      0.13754597851564
  35     -0.27765388012625
  36      0.36925037305947
  37     0.095103952036263
  38    -0.0041906518562711
  39    0.0062250700972077
  40    -0.0092096113277607
  41    0.0024322046621426
  42    -0.0034246802960654
  43     0.060146382881547
  44     0.058885589223845
  45    0.00054616331586379
  46    -0.00050437182354102
  47    0.0020473377283544
  48    -0.025477350814117
  49    -0.023295076237368
  50    0.0013474575571741
  51    -0.00068274939674471
  52    -0.00084263170126277
  53    -0.0097214659054532
  54     0.018779003017112
  55    0.0025435443899739
  56    0.00061563591449825
  57     0.001793076163918
  58    0.00052955260621012
  59    0.0033839483004567
  60    0.0057800510185062
  61    0.0058382229726814
  62    -0.003662215668699
  63    0.0024917889790062
  64    0.0019908334455175
  65    -0.0049993361479884
  66    0.0020824784120479
  67    2.7821383588941e-05
  68    -0.00031011066377951
  69    0.00011834844505454
  70    -0.00050842958562599
  71    0.00045247570801326
  72     0.010760153088253
  73     0.016264992455013
  74    -0.00046070104338529
  75    0.0013814522275247
  76    4.4959555483794e-05
 Sym= A
 Ene=               5
 Spin= Alpha
 Occup=    1.00000
   1    -0.00030152654031869
   2     0.025567865148419
   3     0.077904181066598
   4     0.034904963431188
   5    0.0015234332317551
   6     0.012312432588567
   7     0.025253301183898
   8    0.0042693936088079
   9    9.0504844384783e-05
  10    -0.0010880653016151
  11    0.00069336592545254
  12    0.0007041043337287
  13    0.00049817346309263
  14    -0.0011939088750277
  15    0.0021034360692103
  16    0.0023781686647246
  17     -0.01093164393218
  18    -0.00013070138396669
  19    -0.0049878381775401
  20     0.002389202170381
  21     0.028376688621663
  22       0.0146835781008
  23     0.006857893650717
  24    -0.014136930343149
  25     0.021557738261009
  26     0.022582255859373
  27     0.011074757879374
  28    0.0049249426054815
  29     0.001171115538662
  30    -0.013567785319628
  31    -0.025075836859635
  32      0.49439553489088
  33      0.41595683714556
  34      -0.1614438953594
  35      0.35084029199009
  36      0.29566139293427
  37     -0.11249101411021
  38    0.0051502582620774
  39    -0.0079780794639167
  40    -0.0073011468285025
  41    -0.0028731886307032
  42    -0.0029342386703879
  43     0.013308457503789
  44     0.014246522274583
  45    -0.0017853159672194
  46    -0.00072920623889446
  47    0.00042784816402109
  48    -0.055336535193748
  49    -0.053787572817611
  50    -0.0010077451117329
  51    -0.000134371119825
  52    -0.0019017381995453
  53     0.012732850121539
  54    -0.021642589055494
  55    -0.0036077948244003
  56    0.00086073902851763
  57    -0.0023667219291751
  58    0.00093549536604437
  59    -0.00029826687581722
  60    -0.010933896744714
  61    -0.0031398833902248
  62    0.0051506916818087
  63    -0.0050648644987469
  64    -0.0055808793568366
  65    0.0080362016927053
  66    -0.0048946504107081
  67    0.00020758942432792
  68    0.00025835938128197
  69    3.8933435431393e-05
  70    0.00031008176840509
  71    -0.00039078199635865
  72    -0.0091340338936034
  73    -0.011523131250256
  74    0.0030891788647006
  75    -0.0010152929895849
  76    0.00097805692593224
 Sym= A
 Ene=               6
 Spin= Alpha
 Occup=    1.00000
   1    -0.0020468057770741
   2    -0.0030144082815117
   3     0.010014281373584
   4    0.00024143491142728
   5    0.00032074654788757
   6    0.0023899853999101
   7     0.029360246123569
   8     -0.01322481035235
   9    -0.0092935639571815
  10     0.021475293374207
  11    -0.007060893395872
  12    -0.016690044705513
  13    -0.0074953419618089
  14     0.021623656367437
  15    0.00026982223462268
  16    -0.026156814367178
  17    -0.079952881638556
  18      0.03616847012454
  19    -0.012003044730327
  20    0.0044654008080953
  21     0.025614040170582
  22    -0.0020622865978493
  23    -0.0037805657191732
  24    0.00071465231227331
  25    -0.0011949169970073
  26    -0.00094239932428271
  27    -0.00079965937006144
  28    6.3878375711605e-05
  29    -0.00090632248695439
  30    0.00047496997897533
  31     0.011275019733211
  32    -0.0034822805022351
  33    0.0018162974573914
  34    -0.0072420759480007
  35    -0.0057675871296368
  36    0.00018322411433978
  37    -0.0096531368652662
  38    0.00027191086847616
  39    -0.000492175076218
  40    0.00028339232741707
  41    -6.6981565307122e-05
  42    3.0582120461115e-05
  43    0.0099114385667873
  44     0.012292936519711
  45    0.0030876887220827
  46    -0.0002731249791958
  47    0.0014329520876659
  48    -0.012971862388035
  49     0.022188541026575
  50    -0.0037173204004661
  51    0.0016757513699952
  52    -0.0019406076862898
  53     0.051354483026656
  54      0.05174132831152
  55    -0.0011684954408415
  56    0.0016952342247827
  57    -0.00065911437716161
  58    -0.0012094719028509
  59      0.01095527174328
  60     0.022330823270258
  61      0.51248479741933
  62    -0.053467821910852
  63      -0.4219708892975
  64      0.36360653010563
  65    -0.039997309848646
  66     -0.29865292056172
  67    -0.0064709329264334
  68    0.0017342698159585
  69    0.0061285121678455
  70    0.0023055595251813
  71    -0.0085779610980814
  72    -0.0098412742184268
  73    -0.011277778030695
  74    -0.0017717772079777
  75    0.00011126208959811
  76    0.00071155020301999
 Sym= A
 Ene=               7
 Spin= Alpha
 Occup=    1.00000
   1    -0.00088040658156695
   2    -0.0039327531787913
   3    -0.010906350489801
   4    -0.00026530855553805
   5    -0.0033850072608514
   6    -0.0012633319793021
   7     0.015665450214158
   8    0.0054520934511978
   9     0.023648648696987
  10    -0.017258366498504
  11    -0.014043062587079
  12       0.0101393303082
  13       -0.024609685247
  14     0.010636520209673
  15    -0.00059632078139822
  16    -0.020059777371054
  17    -0.050830760766489
  18     0.026605933076453
  19    -0.011370510301577
  20    2.9149739173266e-05
  21    0.0062654145839718
  22    0.0012959146705502
  23    0.00044494909002316
  24    -0.00017895272815784
  25    0.0012054236901813
  26    4.9215077088169e-05
  27    -0.0011288144611228
  28    0.0012540957573975
  29    0.00056113956185126
  30      0.00332035066919
  31      0.00516445857605
  32    -0.005614890419263
  33    0.00026665528060434
  34    -0.0039626002972983
  35    -0.0016912271524652
  36    -0.00068909612668317
  37    -0.0048290681439891
  38    0.00023102920820472
  39    -0.00052662586171953
  40    0.00025146454316091
  41    -0.0003815361844682
  42    3.9738863997858e-05
  43     0.011149107555002
  44     0.016178160215703
  45    0.00030375816704194
  46    0.00077176507445951
  47    0.0011338251715011
  48    -0.0090703360756192
  49     0.017442973374134
  50    -0.0023777321618196
  51    0.0017607117521079
  52    -0.00027544378615709
  53    -0.026303663124534
  54    -0.025057321636827
  55    -0.001236464167446
  56     -0.00106194609631
  57    -0.00019284583289924
  58    -0.00099520260523733
  59     0.022076573569588
  60     0.034618500516463
  61      0.36983331607834
  62      0.38008999153444
  63      0.40283863814462
  64      0.26247661995595
  65      0.26737026609714
  66      0.28656748748132
  67    0.0061712036900941
  68    0.0060409994840116
  69    -0.0028554236996396
  70    0.0081340246027256
  71    -0.0033343963789375
  72     0.057296807979214
  73     0.058115340110442
  74    -0.00060017151323785
  75    0.0013560715980105
  76    -0.0016026956286986
 Sym= A
 Ene=               8
 Spin= Alpha
 Occup=    1.00000
   1    0.0031851736404034
   2     -0.13869510142098
   3     0.015631185414509
   4     0.090776075078693
   5     -0.24011910028074
   6      0.13863122681214
   7     0.025501241718987
   8     -0.03944207395958
   9     0.024307216844354
  10    0.0090951503589337
  11    -0.014534335371753
  12     0.039504811727236
  13     0.028187258526521
  14     0.026267831422064
  15    0.00052584056616954
  16     0.018559517728774
  17    -0.015980565431394
  18    -0.021898496889917
  19    0.0086448270642372
  20    0.0033580350448314
  21    -0.0077224100049102
  22    -0.0079621702018301
  23    0.0047659973564497
  24    -0.00044083239504442
  25    -0.0052166522309022
  26    -0.0034237381930374
  27    -0.0037995310742924
  28    0.0097961410082768
  29    -0.00044962747332518
  30    -0.0032474350272675
  31    -0.0041326633204398
  32    0.0067406042075427
  33    -0.00097978704542582
  34    0.0068902974470719
  35    0.0086782030110929
  36    0.00060819960370369
  37    0.0033300305381581
  38    -9.007723188096e-05
  39    0.00043710222833212
  40    -0.00034936087558435
  41    0.00032984196166715
  42    -2.9683413558666e-05
  43     -0.01157667306503
  44    -0.019858371876235
  45    -0.00077816736710623
  46    0.0015439595023206
  47    -0.00055326921660841
  48     0.016552273433883
  49     0.031526935012461
  50    -0.0010572657494644
  51    0.00023613942859919
  52    0.00045972082808045
  53     0.014874258819973
  54     0.015122058613544
  55    0.0011563809866798
  56    -0.0076759974754586
  57    0.0060665236083796
  58    0.0074483331720257
  59      -0.2264769812207
  60       -0.209880114941
  61     -0.13264279490918
  62      0.38180631533082
  63     -0.21972385860003
  64    -0.086709080760182
  65       0.2501185941865
  66     -0.14366214505691
  67    0.0032671162653362
  68    -0.0050427744602164
  69     0.013523330742451
  70     0.010148015343586
  71    0.0088880901499256
  72     0.016949256670311
  73     0.022163832681166
  74    0.0015602318069153
  75    -0.0092734312882575
  76     0.003386248472097
 Sym= A
 Ene=               9
 Spin= Alpha
 Occup=    1.00000
   1    0.0005110083996516
   2     0.018458358106184
   3    -0.016130565754304
   4     0.021778396731072
   5    0.0063126936622216
   6    0.0041800430668123
   7    0.0076795697908013
   8    -0.00018749220210573
   9    -0.0098742712300069
  10    0.0050195026732501
  11    -0.011063314643469
  12    0.00030914600264959
  13    -0.00062630921737594
  14    -0.00036068588861526
  15    0.0031396304779684
  16     -0.13787643785485
  17      0.01611733093611
  18    -0.090201631129897
  19    -0.00027823106189282
  20      -0.2779683258378
  21    -0.025315064380906
  22    0.0012357711255488
  23    -0.046562781344959
  24    -0.049099280256757
  25    -0.029953060198779
  26    0.00073197599593535
  27    -0.0054450516047036
  28    -0.00051344159114582
  29     0.007444070260039
  30     -0.22647791095696
  31     -0.20985176034501
  32      0.13280389844577
  33    0.00047758532149212
  34      0.44047123217223
  35     0.086773710635422
  36    0.00056652445459268
  37      0.28843863310792
  38    -0.017126617512369
  39    -0.010227003817568
  40    -7.6595743103386e-05
  41    -0.0016435466896106
  42    -7.4263309294674e-05
  43      0.01789862743832
  44     0.022335872423668
  45    -0.0015900231413352
  46    -0.0016095388231521
  47    -0.0096907631158064
  48     0.015540507160481
  49     0.015278332070761
  50    -0.0011664190782679
  51    0.0013403924519985
  52    -0.0096623830999511
  53     0.015240316453699
  54     0.031127893408734
  55    0.0009999964292399
  56    0.00049691326355684
  57    4.6573536068356e-05
  58    -0.00045005111256164
  59    -0.0032452328528814
  60    -0.0041239650417125
  61    -0.0067407900663878
  62    0.0055004951028887
  63    -0.0042302802956875
  64    -0.0086754995203067
  65     0.003257693082671
  66    -0.00098716302976759
  67    3.8534369589915e-05
  68    0.00023728328618368
  69    -0.00023676033504267
  70    0.00040399768577808
  71    -0.00036540569361854
  72    -0.010252185925697
  73    -0.019328187550573
  74    0.00082846578682914
  75    0.0003635825146544
  76    0.0016306798701852
 Sym= A
 Ene=              10
 Spin= Alpha
 Occup=    1.00000
   1    -0.006604713695648
   2    -0.068821283941203
   3    -0.032108038437406
   4     0.030536561754504
   5    -0.080842316477571
   6       0.0473749581155
   7    0.00082124887354804
   8    -0.0048622026654212
   9    0.0036784828605093
  10    0.0014652341358155
  11    -0.00081626186499386
  12    0.0046729622634003
  13    0.0042309048073566
  14    0.0019437721227349
  15    0.00017594698073963
  16    0.00089465729069162
  17    -0.00082151468429822
  18    -0.003645626642628
  19    -0.0064335651235114
  20    0.0049027823108052
  21    -0.015495772957973
  22    -0.016916140537726
  23    0.0078309478001077
  24    0.00019499414359993
  25    -0.0021208540598383
  26    -0.00012579122445624
  27    -0.0007114312021017
  28    0.0038215398961569
  29    -3.504085782614e-05
  30    -0.00081932444350502
  31    -0.0031705913013401
  32    0.0024454939847326
  33    0.00092523603898844
  34    0.00064711607990052
  35    0.0039872698265759
  36    0.0022727223403692
  37    -0.00012100261644859
  38    5.8145167161629e-06
  39    0.00018119536177861
  40    -8.5192957916118e-07
  41    0.00014070540700881
  42    7.4215101817249e-05
  43    -0.0014325100918081
  44    -0.0095919794573452
  45    -0.0001029444499439
  46    0.00059299247335431
  47    -0.00015006470546511
  48    9.655098324895e-05
  49      0.02694754544093
  50    -0.00087514682807785
  51    -0.00016905280436417
  52    0.00032465399293963
  53    -0.0018224739768955
  54      0.01328650561024
  55    0.0012100061252747
  56    -0.0036698647116854
  57    0.0019610056223167
  58    -0.0017201745430813
  59      0.43788136367355
  60      0.52285534671776
  61     -0.12744886712239
  62      0.24651541221668
  63     -0.16141391967987
  64    -0.087844007314257
  65      0.17049103972609
  66     -0.11232199971743
  67    0.0012050066830288
  68    -0.0024611343527126
  69    0.0056125687464749
  70    0.0038637517589126
  71    0.0040495089151459
  72    -0.004452981253175
  73       0.0140683412163
  74    0.0013320925398976
  75    -0.003662894018255
  76    0.0022078505132923
 Sym= A
 Ene=              11
 Spin= Alpha
 Occup=    1.00000
   1    0.00018323796960059
   2    0.00098143759630603
   3    4.6012270187063e-05
   4    0.0042621451553803
   5    0.0010297481175884
   6    -0.0083290078956032