[Molden Format]
made by pyscf v[2.0.1]
[Atoms] (AU)
C   1   6     0.00000000000000     0.00000000000000     0.00000000000000
C   2   6     2.85207482267819     0.00000000000000     0.00000000000000
F   3   9     3.65415199667903     0.00000000000000     2.45977207315200
H   4   1     3.58561868306314    -1.66499644088808    -0.96128614334650
H   5   1     3.58561868306314     1.66499644088808    -0.96128614334650
H   6   1    -0.73354386038494    -1.47277581671572     1.23580564461298
F   7   9    -0.80207717400084     2.31142966595619     0.84129159700793
H   8   1    -0.73354386038494    -0.33385117401718    -1.89336409366168
[GTO]
1 0
 s    8 1.00
                  6665  0.00069158396281299
                  1000  0.0053257961529341
                   228   0.027060721042034
                 64.71    0.10165684614077
                 21.06     0.2745748236174
                 7.495    0.44829431892377
                 2.797    0.28490261071525
                0.5215   0.015194859206082
 s    8 1.00
                  6665  -0.00029326965268655
                  1000  -0.0023180354739745
                   228  -0.011499786038565
                 64.71  -0.046826727009787
                 21.06   -0.12846616875047
                 7.495   -0.30126627246289
                 2.797   -0.25563070233011
                0.5215      1.093793361012
 s    1 1.00
                0.1596                   1
 p    3 1.00
                 9.439   0.056979251590039
                 2.002    0.31320721150073
                0.5456    0.76037674173753
 p    1 1.00
                0.1517                   1
 d    1 1.00
                  0.55                   1

2 0
 s    8 1.00
                  6665  0.00069158396281299
                  1000  0.0053257961529341
                   228   0.027060721042034
                 64.71    0.10165684614077
                 21.06     0.2745748236174
                 7.495    0.44829431892377
                 2.797    0.28490261071525
                0.5215   0.015194859206082
 s    8 1.00
                  6665  -0.00029326965268655
                  1000  -0.0023180354739745
                   228  -0.011499786038565
                 64.71  -0.046826727009787
                 21.06   -0.12846616875047
                 7.495   -0.30126627246289
                 2.797   -0.25563070233011
                0.5215      1.093793361012
 s    1 1.00
                0.1596                   1
 p    3 1.00
                 9.439   0.056979251590039
                 2.002    0.31320721150073
                0.5456    0.76037674173753
 p    1 1.00
                0.1517                   1
 d    1 1.00
                  0.55                   1

3 0
 s    8 1.00
                 14710  0.00072067370873197
                  2207  0.0055504869689163
                 502.8   0.028254207662589
                 142.6    0.10639582836653
                 46.47    0.28668420124307
                  16.7    0.44843796582416
                 6.356    0.26464118141135
                 1.316   0.015326060993048
 s    8 1.00
                 14710  -0.00032119389049893
                  2207  -0.0025461915683188
                 502.8  -0.012643359507821
                 142.6   -0.05195749170489
                 46.47   -0.14344713812646
                  16.7   -0.33243762329603
                 6.356   -0.21865906750347
                 1.316     1.0955904138622
 s    1 1.00
                0.3897                   1
 p    3 1.00
                 22.67   0.064834021493887
                 4.977    0.34053535983101
                 1.347    0.73464640679382
 p    1 1.00
                0.3471                   1
 d    1 1.00
                  1.64                   1

4 0
 s    3 1.00
                 13.01   0.033498726389998
                 1.962    0.23480080117413
                0.4446     0.8136829578829
 s    1 1.00
                 0.122                   1
 p    1 1.00
                 0.727                   1

5 0
 s    3 1.00
                 13.01   0.033498726389998
                 1.962    0.23480080117413
                0.4446     0.8136829578829
 s    1 1.00
                 0.122                   1
 p    1 1.00
                 0.727                   1

6 0
 s    3 1.00
                 13.01   0.033498726389998
                 1.962    0.23480080117413
                0.4446     0.8136829578829
 s    1 1.00
                 0.122                   1
 p    1 1.00
                 0.727                   1

7 0
 s    8 1.00
                 14710  0.00072067370873197
                  2207  0.0055504869689163
                 502.8   0.028254207662589
                 142.6    0.10639582836653
                 46.47    0.28668420124307
                  16.7    0.44843796582416
                 6.356    0.26464118141135
                 1.316   0.015326060993048
 s    8 1.00
                 14710  -0.00032119389049893
                  2207  -0.0025461915683188
                 502.8  -0.012643359507821
                 142.6   -0.05195749170489
                 46.47   -0.14344713812646
                  16.7   -0.33243762329603
                 6.356   -0.21865906750347
                 1.316     1.0955904138622
 s    1 1.00
                0.3897                   1
 p    3 1.00
                 22.67   0.064834021493887
                 4.977    0.34053535983101
                 1.347    0.73464640679382
 p    1 1.00
                0.3471                   1
 d    1 1.00
                  1.64                   1

8 0
 s    3 1.00
                 13.01   0.033498726389998
                 1.962    0.23480080117413
                0.4446     0.8136829578829
 s    1 1.00
                 0.122                   1
 p    1 1.00
                 0.727                   1

[5d]
[7f]
[9g]

[MO]
 Sym= A
 Ene=               0
 Spin= Alpha
 Occup=    1.00000
   1       1.0021109027725
   2    0.0049133987345067
   3    -0.0085366381193717
   4    -0.00036643219115633
   5    0.00068401719371814
   6    0.0001721675309839
   7    -0.0011998567689633
   8    0.00041460679564256
   9    5.5030217413851e-05
  10    8.4480116431137e-05
  11    1.1981541057061e-05
  12    2.8837619462889e-05
  13    -0.00014747708981357
  14    6.7459244800447e-06
  15    -0.0001873915822046
  16    8.6298398692215e-05
  17    0.0028075860181299
  18    -0.00038833436228409
  19    5.0672467185549e-06
  20    -9.896248184019e-06
  21    -0.0014439631261794
  22    -0.00010102692835221
  23    0.00015697276546714
  24    2.4215910734112e-05
  25    4.4636156605524e-05
  26    -5.0261542161913e-06
  27    -3.7482162967434e-05
  28    0.00010708726852705
  29    -9.6059693808181e-06
  30    -6.130562671305e-06
  31    -0.00013115042207537
  32    -1.0026489385412e-05
  33    -7.2741862887582e-06
  34    -2.6292919752574e-06
  35    -7.8933413409705e-05
  36    4.0709202692497e-05
  37    4.7015331975154e-05
  38    -1.2778420655377e-05
  39    1.1704538681635e-05
  40    2.0973606939162e-06
  41    3.223962740098e-05
  42    -3.8195988866313e-06
  43    -5.8518194257228e-05
  44    0.00012568882439247
  45    -5.8152491976554e-05
  46    6.1079554406052e-05
  47    1.9527833386528e-05
  48    -7.1011100127195e-05
  49    0.00030312265587686
  50    -9.0491263447117e-05
  51    -2.6382465549151e-05
  52    2.6105701912258e-06
  53    0.00067373102327423
  54    0.0014166197389965
  55    4.3411278879681e-05
  56    -0.00018745276110374
  57    6.8055392543897e-05
  58    0.00014994532917947
  59    0.00065082909578822
  60    9.5887216153805e-05
  61    9.8840382206534e-05
  62    -0.00033222531265342
  63    -0.00012635819053183
  64    -0.00015604740934667
  65    0.00071689406939506
  66    0.00028252117877009
  67    7.8481048180676e-05
  68    3.8452459210322e-05
  69    -0.00011250965783397
  70    0.00012792013427746
  71    0.00010556606764524
  72    0.00059252403662706
  73    0.0013610867907784
  74    2.9803345955714e-05
  75    -0.00011608423599374
  76    -0.00021647567210193
 Sym= A
 Ene=               1
 Spin= Alpha
 Occup=    1.00000
   1    -0.00018735850342732
   2    8.6432887817204e-05
   3    0.0028077635457512
   4    0.00038867946134714
   5    -1.0365511500698e-05
   6    -6.0558906256342e-08
   7    0.0014441711105741
   8    0.0001823344922242
   9    -4.1833525230373e-05
  10    1.8076034931785e-05
  11    -0.00011579648508978
  12    -2.3631563025081e-06
  13    -4.1062519597129e-05
  14    -5.3005458608119e-06
  15       1.0021109932689
  16    0.0049115573913769
  17    -0.0085376712540123
  18    0.00036509595663694
  19    -7.1382706532303e-05
  20    0.00070283862891047
  21    0.0011993817572881
  22    -8.9799991679528e-05
  23    0.00040887674185736
  24    0.00010147511710459
  25    -1.0314726462353e-05
  26    2.169396603389e-05
  27    -0.00013759559382345
  28    -8.9543671804862e-06
  29    0.00014992434615048
  30    0.00065086209411385
  31    9.6018705413425e-05
  32    -9.8883412139083e-05
  33    -5.1095140650156e-06
  34    -0.00035554779942816
  35    0.00015607172484818
  36    2.0238689495109e-05
  37    0.00077012507100859
  38    -0.00018595529310007
  39    -0.00011234251103164
  40    -1.3979886699442e-06
  41    -2.4728077596107e-05
  42    -3.1807336960057e-08
  43    0.00059014469043824
  44    0.0013604164567216
  45    -2.9741158066551e-05
  46    -0.00016391147640575
  47    -0.00018319823924544
  48    0.00067242083142784
  49    0.0014162560963135
  50    -4.3392041649376e-05
  51    0.00012821415569527
  52    -0.00015290446366108
  53    -7.2268594602311e-05
  54    0.00030260097292749
  55    9.0456098490782e-05
  56    1.1416834713951e-05
  57    -2.3862735551411e-05
  58    -9.599586034463e-06
  59    -6.1372904779064e-06
  60    -0.00013121623751635
  61    1.0015933566954e-05
  62    7.1409297432027e-08
  63    -7.6916250712922e-06
  64    7.8872188476298e-05
  65    3.0263390363547e-05
  66    5.4463831608264e-05
  67    -1.9327682395236e-05
  68    -4.2075408158248e-07
  69    4.8732260120868e-06
  70    2.8462129731828e-05
  71    -1.2309720040768e-05
  72    -5.7409548352177e-05
  73    0.00012613127188017
  74    5.8215384170175e-05
  75    -2.512560219301e-06
  76    6.4112795677616e-05
 Sym= A
 Ene=               2
 Spin= Alpha
 Occup=    1.00000
   1    1.1146823404855e-05
   2    1.8870474142248e-06
   3    -0.00075455254571629
   4    -0.00013866114898835
   5    6.0444097529452e-06
   6    -5.3596991312702e-06
   7    -0.00022119403589227
   8    4.2121528516034e-05
   9    -0.0001223313351367
  10    6.0319303000195e-05
  11    -2.1659976410551e-05
  12    -7.8193274194124e-06
  13    -2.5728800795918e-05
  14    -9.6205467534094e-07
  15    -0.0001623398609107
  16    0.00023617164193834
  17    0.0027099448762039
  18    0.00034446790381353
  19    -4.801295953519e-06
  20    0.00084557419135511
  21    8.3477852434851e-05
  22    3.8703167730943e-05
  23    0.0013531828403481
  24    0.00015061944357929
  25    0.00010428846025693
  26    -4.670623593544e-06
  27    1.7577906766332e-05
  28    3.4002584035382e-06
  29       1.0009642226813
  30    0.00091675196915917
  31    -0.0050738448734124
  32    -0.0006211300279569
  33    -2.0118125484496e-05
  34    -0.0019560459162306
  35    0.00025535956077932
  36    -1.7612077576645e-05
  37    0.00068540078452127
  38    -0.00014379065118807
  39    -8.1042970850443e-05
  40    2.6099419385656e-06
  41    -9.0131487992689e-06
  42    1.154249958021e-06
  43    -0.00023587550444065
  44    -0.00013449265062955
  45    -6.2358951074757e-06
  46    -3.0102348912295e-06
  47    -0.00014869233282007
  48    -0.00026029912223142
  49    -0.00016532215338219
  50    1.3630832009737e-06
  51    3.3967421518231e-06
  52    -0.00015621771797027
  53    2.5276710986391e-05
  54    -6.0228178670345e-05
  55    -7.8196299529239e-05
  56    -1.1411386436711e-05
  57    -1.9395359758835e-05
  58    3.166814315458e-05
  59    6.1896817015231e-05
  60    -7.8909455766603e-05
  61    3.4521844880492e-05
  62    5.5020779238861e-06
  63    -1.9717194450411e-06
  64    -0.00013327315309054
  65    -2.8724703494494e-06
  66    -1.1169030776909e-05
  67    9.3785491110609e-06
  68    -5.5947950917519e-06
  69    3.2153383709175e-06
  70    -1.3991754338615e-05
  71    1.0345552105116e-05
  72    2.6155971586359e-05
  73    0.00021535008937754
  74    3.2942508425408e-05
  75    -1.3408736309958e-05
  76    2.291840708349e-05
 Sym= A
 Ene=               3
 Spin= Alpha
 Occup=    1.00000
   1    -0.00016270271045838
   2    0.00023542011834342
   3    0.0027096547676539
   4    -0.00034449265284684
   5    0.00079198832963274
   6    0.00028301468083977
   7    -8.3813282341471e-05
   8    0.0012574433182464
   9    0.00049886145566807
  10    -6.4693981360796e-05
  11    -3.8809657328504e-05
  12    8.5832386956304e-05
  13    -0.00010677686440571
  14    -9.6724113050678e-05
  15    1.1080837040143e-05
  16    1.2177911833883e-06
  17    -0.00075478649814282
  18    0.00013867760845171
  19    -8.7346526382302e-06
  20    3.980737319855e-06
  21    0.00022067443492259
  22    -0.00012986883554637
  23    -1.9244972291457e-06
  24    -4.2218185885885e-06
  25    8.4220134041439e-06
  26    1.9382038974792e-05
  27    -6.3000729124607e-05
  28    2.0170665370836e-05
  29    3.1695504764112e-05
  30    6.1939888932546e-05
  31    -7.8988811695679e-05
  32    -3.4500128232471e-05
  33    -3.6777148426654e-06
  34    4.3850744985867e-06
  35    0.00013336108976828
  36    -9.3589014198534e-06
  37    -6.5906367156625e-06
  38    9.4381134649897e-06
  39    -7.813461038309e-06
  40    3.2087546492476e-06
  41    -1.3954982415987e-05
  42    8.8042823323548e-06
  43    2.6750321223282e-05
  44    0.00021567856666793
  45    -3.2974947666802e-05
  46    2.6173254675608e-05
  47    -4.7248166378345e-06
  48    2.3935896107041e-05
  49    -6.0130297105797e-05
  50    7.8261665866039e-05
  51    -1.4267468978832e-05
  52    -1.7410549220044e-05
  53    -0.00025892617521657
  54    -0.00016466418583707
  55    -1.2958481361398e-06
  56    -0.00014798755972249
  57    -5.042463548327e-05
  58       1.0009641292335
  59    0.00093241036320491
  60    -0.0050550141611559
  61    0.00061856249795358
  62    -0.0018211999950739
  63    -0.00068300305918256
  64    -0.00025701713570025
  65    0.00065704310314157
  66    0.00022128860251483
  67    5.509305465776e-05
  68    2.6688988748638e-05
  69    -8.109890879898e-05
  70    0.00010592534850648
  71    7.6680644958693e-05
  72    -0.00023404089063859
  73    -0.00013336690627351
  74    6.3311797471303e-06
  75    -0.00013882479410929
  76    -5.3558238150747e-05
 Sym= A
 Ene=               4
 Spin= Alpha
 Occup=    1.00000
   1    -0.0010734171975061
   2    -0.00090464177236375
   3     0.011737966746402
   4    0.00034771183424541
   5    -0.0080117496160051
   6    0.0023206753653735
   7    -0.0092460252808288
   8    -0.025343402701999
   9      0.01212723601265
  10    9.6053914162425e-05
  11    1.7650883262731e-05
  12    0.00053673525010233
  13    -0.00058011592286608
  14    -0.0021121041093711
  15    5.1659562940598e-05
  16    0.0007618072438999
  17    0.0039457607348613
  18    1.1575546640959e-05
  19    -0.0062966759377179
  20    0.0018006317732246
  21    -0.0054604135105813
  22     0.032665145484069
  23    -0.0015246206556993
  24    -0.00033037678211531
  25    0.00045927747948927
  26     0.036397882004458
  27    0.00052644570885137
  28    0.0074770416677425
  29    0.00026795359633797
  30    -0.0048686031093994
  31    -0.0062130858881393
  32     0.005320458977576
  33       0.6670800050861
  34    -0.0048232330971692
  35    0.0045005403388597
  36      0.47148296709234
  37    -0.003648358179657
  38    0.00027368681087668
  39    -1.5884034029988e-05
  40     -0.01196178545375
  41    0.00021173157639475
  42    -0.0043575158677079
  43     0.053858460008167
  44     0.057073581836497
  45    -0.00054639004241972
  46    -0.0010994655315873
  47    0.0018931919172631
  48    -0.053789532911917
  49    -0.053112014332734
  50    0.00035463782931996
  51    -0.0010543943962966
  52    -0.0013512886221464
  53    -0.00095732456246829
  54      -0.0296265027336
  55    -0.0020822482699317
  56    -0.00062915406634259
  57    -0.00023201634564206
  58    -0.0010548389498522
  59     -0.00234402271637
  60    0.0078487800535561
  61    -0.0029987687926744
  62    0.00073337564878934
  63    -0.0040835750725701
  64     0.001090855217355
  65    0.0005868509830807
  66    -0.002739426577347
  67    -2.7302344135656e-05
  68    0.00035924468978335
  69    -0.00014386742121817
  70    0.00023962567214556
  71    -3.2875847038037e-05
  72    -0.0019466903164088
  73    0.0042882860612964
  74    0.00082603148988585
  75    0.00036450171279206
  76    2.3855093148508e-05
 Sym= A
 Ene=               5
 Spin= Alpha
 Occup=    1.00000
   1    0.0014527477978311
   2     0.031267884823814
   3     0.079212591516706
   4     0.048293627754549
   5    -0.0047089880091034
   6     0.012401113412226
   7     0.032033973680894
   8    -0.011696892450547
   9    -0.027653473806063
  10    -0.002993020815985
  11    0.00033359811423398
  12    -0.00045667736349314
  13    0.00035074983666054
  14    0.00051560434974633
  15    0.0015699135339378
  16    -5.9865230980968e-05
  17    -0.0049109975739097
  18    -0.0021668851658214
  19    0.00016130992175298
  20    -0.001188357930946
  21     0.030544526862017
  22      0.00127671728591
  23       0.0154023315068
  24    -0.018429840682548
  25     0.027457238245359
  26    -0.00075912724565835
  27     0.014250308866766
  28    0.00020313037797648
  29     0.001436555700332
  30    -0.00015503744507524
  31    -0.014115608264432
  32      0.63618211870825
  33    -0.0067017614304073
  34     -0.19727948114749
  35      0.45095146839088
  36    -0.0048379053141025
  37     -0.13650876492202
  38    0.0063501963816391
  39    -0.010576567401983
  40    0.00019972001938898
  41    -0.0037723041714801
  42    -0.00014424469451861
  43    -0.029167191266127
  44    -0.025591803830703
  45    -0.0017326770512318
  46    -0.00011288735724062
  47    -0.0013462691990526
  48    -0.026372276236264
  49     -0.02298556889359
  50    -0.0017929170385965
  51    0.00018267136754829
  52    -0.0014404912934274
  53     0.013454941509528
  54    -0.010848033479897
  55    -0.00098086385265922
  56    0.0011016001182693
  57    -0.00019222327627186
  58    -0.00025162072024649
  59    0.00067337168439841
  60    0.0051210120930842
  61    0.00042389297578625
  62    -0.00087892984119176
  63    0.0029998215599004
  64    -0.0049359276483459
  65    -0.0013549332944081
  66    0.0027305490879827
  67    -0.00035664114434778
  68    -0.0005798701219213
  69    -8.6298849390123e-05
  70    -0.00018170947496097
  71    -0.00057647730474684
  72     -0.02205979649293
  73    -0.036870431014806
  74    0.0024896899424823
  75    -0.00018915725572187
  76    -0.0014815365828623
 Sym= A
 Ene=               6
 Spin= Alpha
 Occup=    1.00000
   1     -0.00151866996246
   2    -0.0013801272527517
   3    0.0039089898946059
   4    -0.0013001454621202
   5    0.0020274652027879
   6    0.00081991867092729
   7     0.030675071841238
   8    -0.013288868226844
   9    -0.0072068817841549
  10     0.004634846948095
  11    0.0097593882602564
  12    0.0054770131660536
  13    -0.022171872780271
  14     0.025554444343385
  15    -0.0014250773274439
  16    -0.030527821846348
  17      -0.0790462467962
  18     0.048470690195678
  19    -0.014346203986671
  20    9.1926681904247e-06
  21     0.031756293701758
  22     0.020981576260223
  23     0.020876412503485
  24    -0.00047964403034887
  25    0.00050456918842043
  26    0.0019472333704811
  27    -0.0023867152544193
  28    8.7469594507104e-05
  29    0.00027885358957246
  30    -0.000628190515996
  31    -0.0054091714320849
  32    0.00035333190328459
  33    -0.0029728853211022
  34    -9.5582785478892e-05
  35    -0.0048855491378927
  36    -0.0028667005822377
  37    0.0004312560053101
  38    -0.00019087221029241
  39    -0.00073622236507203
  40    0.00033876325934066
  41    -0.00014816967043055
  42    -0.00033472213844933
  43     0.023390918065322
  44     0.037149956343334
  45    0.0024583176994949
  46    0.0014017664801187
  47    0.00071552235220883
  48    -0.013597820654435
  49      0.01151426006645
  50    -0.0010356664484396
  51    0.00052979266939113
  52    -0.00095544338558264
  53     0.026626824661573
  54     0.024236898168449
  55    -0.0018154109652813
  56    0.0013654985563806
  57    0.00047379715103577
  58    -0.0014376453527281
  59    0.00066534610073898
  60     0.014749639517445
  61      0.63611568254741
  62      0.18983904540946
  63     0.054589329558255
  64      0.45088604646486
  65      0.13136893294895
  66     0.037661804590538
  67    -0.00072314328986669
  68    -0.0038789437229112
  69    -0.0022093229998985
  70    0.0070298675854462
  71    -0.0098488431728011
  72     0.026069647256039
  73      0.02348681053624
  74    -0.0017859981143098
  75    0.0011685836377213
  76    0.00044276411729423
 Sym= A
 Ene=               7
 Spin= Alpha
 Occup=    1.00000
   1    9.9735948304846e-06
   2    0.00062005060573191
   3    0.0039867077762535
   4    5.1245619236574e-05
   5    0.0023430476140427
   6    -0.0014144699153358
   7    0.0063110959920627
   8    -0.013594436657859
   9     0.031339930080024
  10     0.020003932558917
  11    -0.0070160102281934
  12     0.027897307788969
  13     0.011512169995398
  14    0.0029533938551586
  15    -0.0011043493672457
  16    -0.0018717968066311
  17    0.0093209910039786
  18    0.0010846896777465
  19    0.0041973266575195
  20    -0.0064212890772577
  21     0.010135862189135
  22     0.020526350834433
  23    -0.018826471564903
  24    0.00065930051781335
  25    0.0018058132997009
  26    0.00032202595131912
  27    -0.00030275966355666
  28    -0.000663774211714
  29    -0.0010406532181666
  30    -0.0023794832440011
  31    0.0074681359780202
  32    0.0030884055623548
  33    -0.0041603123607333
  34    -0.00057189836316124
  35    -0.0011010577998615
  36    -0.0028222395345769
  37    -0.00027139330379081
  38    -0.00026011035517376
  39    -0.00011187197989016
  40    -3.5213688628222e-05
  41    0.00010924560427478
  42    -0.000355350199034
  43    -0.0011591798451278
  44    0.0054312638973601
  45    -0.00075051081246591
  46    -6.1949550430831e-05
  47    0.00037101935023007
  48    -0.0015132814089993
  49     -0.02900340229211
  50    0.0020493549832697
  51    4.4196451208276e-05
  52    -0.00071649609765612
  53    -0.050036503883889
  54    -0.051293316777843
  55    -0.00028637430206785
  56    -0.00073372356187345
  57    -0.001506821809844
  58    0.0002163993685436
  59    -0.0040897262928662
  60    -0.0048211614515556
  61     0.013904995556945
  62     -0.22650928162614
  63      0.62726352126784
  64     0.009140597772102
  65     -0.16032705542171
  66      0.44298124003621
  67    -0.0069649467327244
  68    0.0039998747531412
  69    -0.0090695005226998
  70    -0.0037335978269193
  71    -0.0017753018647927
  72     0.051610213936412
  73     0.056575144172788
  74    0.00036694035195173
  75    0.0021163256561996
  76    -0.00051943658530082
 Sym= A
 Ene=               8
 Spin= Alpha
 Occup=    1.00000
   1    0.0029648143952763
   2     -0.14015003608477
   3     0.010563592858788
   4     0.090729399407851
   5     -0.26151381019256
   6    -0.094400646657359
   7     0.024834477123013
   8    -0.046365322548142
   9    -0.018139806449741
  10     0.020528239999031
  11     0.009443084487914
  12    -0.029332996728666
  13     0.034520524302017
  14      0.02826734074273
  15    -0.00054256639150458
  16     0.012602541463896
  17    -0.0076784304275355
  18    -0.024401413673983
  19    0.0072373064220629
  20    -0.0011956577629439
  21    -0.011659802808432
  22    0.00063535308963097
  23    0.0031817543053971
  24    0.0011444678219418
  25    0.0035998888123326
  26    5.7381042479422e-05
  27    -0.0041820622422314
  28     0.010192101926085
  29    0.00026466832423399
  30    0.00073923827583974
  31    -0.0009581419586949
  32    -0.00039409199267432
  33    -0.00013252000368426
  34    -0.0024556519528685
  35    0.0044488679413457
  36    -0.00056889559768603
  37    -0.0017023021951784
  38    -6.2065003867557e-05
  39    0.00046535315397064
  40    -0.00012140539004702
  41    0.00010091352119901
  42    0.00025287933870705
  43    -0.021879936068565
  44    -0.018516204576154
  45    0.00048487153655016
  46    0.00069567381786107
  47    -0.00027825700674497
  48     0.012895993087643
  49     0.016236726083478
  50    -0.00084857460886246
  51    -0.00079352938655025
  52    -0.00034069458459448
  53     0.016742320951089
  54     0.019830888355693
  55    0.0014295281407623
  56    -0.009673846036814
  57    -0.0017487363125461
  58    0.0073059888427136
  59     -0.22588127975204
  60     -0.20655425133456
  61     -0.13399531705774
  62      0.41337816482375
  63      0.15008622162473
  64    -0.087783621739096
  65      0.26993865534958
  66     0.098104395515616
  67    0.0068020786920858
  68     0.003504409134777
  69    -0.010237762178618
  70     0.012209943199739
  71    0.0095802887637118
  72     0.015241920276559
  73     0.018539541377173
  74    0.0015091557583954
  75     -0.00854930556669
  76    -0.0048226061427813
 Sym= A
 Ene=               9
 Spin= Alpha
 Occup=    1.00000
   1    -0.00058878363963427
   2     0.012979017168518
   3    -0.0074573681540045
   4     0.023942987556372
   5    -0.0031924756783866
   6    0.0041737810591473
   7      0.01153533043938
   8    0.0029260695244972
   9    0.00092143118855503
  10    0.0029334213521754
  11    -0.010758018016883
  12    -0.0006004084766173
  13    -0.0031480015745781
  14    8.800286528032e-05
  15    0.0029083303811539
  16     -0.13936829763922
  17      0.01098530445154
  18    -0.090057563282407
  19    0.00076269542788828
  20     -0.27879402511286
  21    -0.024538989268523
  22    -0.0011107814125848
  23    -0.050107761040648
  24    -0.049402337562851
  25    -0.029694659880799
  26    6.2467536155398e-05
  27    -0.0058746171635196
  28    0.00076746678762054
  29    0.0072958499121058
  30     -0.22591820460298
  31     -0.20650169022689
  32      0.13426974468366
  33    -0.00037905456990213
  34      0.43964846388847
  35     0.087890451668488
  36    -0.00016448447556646
  37      0.28714488204639
  38    -0.017227483862597
  39    -0.010213467965443
  40    -0.00013131873877632
  41    -0.0016814101302841
  42    -1.7537420470213e-05
  43     0.016077996552257
  44     0.018759627567571
  45    -0.0015291180814839
  46    -0.0015224861558737
  47    -0.009654148316557
  48     0.017546297632882
  49     0.019876187795563
  50    -0.0014398433200634
  51    0.0015724120663311
  52    -0.009659459956996
  53     0.011804937195763
  54     0.015817957133745
  55    0.00078796470823341
  56    -9.5038417659243e-05
  57    -0.00086676581830132
  58    0.00026172033212981
  59    0.00072468812762689
  60    -0.00097947283303419
  61    0.00039146184185032
  62     -0.00224938406875
  63    -0.00087459034214509
  64    -0.0044210882029759
  65    -0.0014300297825739
  66    -0.00091871401572122
  67    -0.00010682540047003
  68    -0.00040272617457251
  69    -6.737157522137e-05
  70    6.7828467836278e-05
  71    -0.00034278815699902
  72     -0.01979347984088
  73    -0.017731391530104
  74    -0.00041188912479263
  75    -0.00046538877292277
  76    0.00068571198461312
 Sym= A
 Ene=              10
 Spin= Alpha
 Occup=    1.00000
   1    -0.0011353003254881
   2    -0.0028783562225724
   3    0.0061546594480408
   4    0.0012082214838437
   5    0.00097506368809934
   6    -0.0074948798619799
   7     0.015944843622926
   8    0.0068233875014145
   9    -0.0017621425495621
  10    0.00055949481782076
  11    -0.0047139984157958
  12    0.00023022626444671
  13    -0.0013798484509452
  14    -0.00038731683324164
  15    -0.0068091724744888
  16     -0.06908715302541
  17    -0.035847670116309
  18     -0.02977026414038
  19    7.3314210606484e-05
  20    -0.094301927370796
  21    -0.00071936217131887
  22    -0.00059261799592476
  23    -0.011251307777713
  24    -0.0054807179743884
  25    -0.0029344723379313
  26    0.00066304511693768
  27    -0.0011882970691526
  28    0.00045526612308099
  29    -0.0020198303508677
  30      0.43908334639059
  31      0.52648248203131
  32     0.097194708961911
  33    0.0084178846543532
  34      0.30356646666659
  35     0.066806963180519
  36    0.0054983035218291
  37      0.20954167841055
  38    -0.0072386786673522
  39    -0.0042079662173513
  40    -0.00025409712820342
  41    -0.0006153399693082
  42    -3.3165422880835e-05
  43    -0.00057609150689101
  44     0.015785256317814
  45    -0.0013588873371042
  46    0.00013028725170112
  47    -0.0039474939827052
  48    -0.0018355922294351
  49     0.013974289897213
  50    -0.0011510088273422
  51    -9.3385192278498e-05
  52    -0.003989284298116
  53    -0.0016098384381137
  54     0.012717837063503
  55    -0.0002254343952916
  56    -1.3364092561037e-06
  57    -0.00037103513913109
  58    0.00047843536654017
  59    0.00096074939897358
  60    -0.0030953008699147
  61    -0.00041364954267154
  62    -0.0013285468463808
  63     -0.00042186131961
  64    -0.0029587771609173
  65    -0.00073494885983077
  66    0.00078586803478771
  67    9.9745473469495e-05
  68    -9.8810090240799e-05
  69    -3.4303821972109e-06
  70    4.2837392046958e-05
  71    5.9329688824425e-05
  72    -0.001509444019432
  73    -0.0017563825695624
  74    0.00042586576925057
  75    -0.00017188810978633
  76    0.0010941752853976
 Sym= A
 Ene=              11
 Spin= Alpha
 Occup=    1.00000
   1    -0.0067836471213102
   2    -0.069641586013346
   3    -0.036187030898731