[Molden Format]
made by pyscf v[2.0.1]
[Atoms] (AU)
C   1   6     0.00000000000000     0.00000000000000     0.00000000000000
C   2   6     2.85207482267819     0.00000000000000     0.00000000000000
F   3   9     3.65415199667903     0.00000000000000     2.45977207315200
H   4   1     3.58561868306314    -1.66499644088808    -0.96128614334650
H   5   1     3.58561868306314     1.66499644088808    -0.96128614334650
H   6   1    -0.73354386038494    -1.66499644088808     0.96128614334650
F   7   9    -0.80207717400084     2.13022510286915     1.22988603657600
H   8   1    -0.73354386038494     0.00000000000000    -1.92257228669300
[GTO]
1 0
 s    8 1.00
                  6665  0.00069158396281299
                  1000  0.0053257961529341
                   228   0.027060721042034
                 64.71    0.10165684614077
                 21.06     0.2745748236174
                 7.495    0.44829431892377
                 2.797    0.28490261071525
                0.5215   0.015194859206082
 s    8 1.00
                  6665  -0.00029326965268655
                  1000  -0.0023180354739745
                   228  -0.011499786038565
                 64.71  -0.046826727009787
                 21.06   -0.12846616875047
                 7.495   -0.30126627246289
                 2.797   -0.25563070233011
                0.5215      1.093793361012
 s    1 1.00
                0.1596                   1
 p    3 1.00
                 9.439   0.056979251590039
                 2.002    0.31320721150073
                0.5456    0.76037674173753
 p    1 1.00
                0.1517                   1
 d    1 1.00
                  0.55                   1

2 0
 s    8 1.00
                  6665  0.00069158396281299
                  1000  0.0053257961529341
                   228   0.027060721042034
                 64.71    0.10165684614077
                 21.06     0.2745748236174
                 7.495    0.44829431892377
                 2.797    0.28490261071525
                0.5215   0.015194859206082
 s    8 1.00
                  6665  -0.00029326965268655
                  1000  -0.0023180354739745
                   228  -0.011499786038565
                 64.71  -0.046826727009787
                 21.06   -0.12846616875047
                 7.495   -0.30126627246289
                 2.797   -0.25563070233011
                0.5215      1.093793361012
 s    1 1.00
                0.1596                   1
 p    3 1.00
                 9.439   0.056979251590039
                 2.002    0.31320721150073
                0.5456    0.76037674173753
 p    1 1.00
                0.1517                   1
 d    1 1.00
                  0.55                   1

3 0
 s    8 1.00
                 14710  0.00072067370873197
                  2207  0.0055504869689163
                 502.8   0.028254207662589
                 142.6    0.10639582836653
                 46.47    0.28668420124307
                  16.7    0.44843796582416
                 6.356    0.26464118141135
                 1.316   0.015326060993048
 s    8 1.00
                 14710  -0.00032119389049893
                  2207  -0.0025461915683188
                 502.8  -0.012643359507821
                 142.6   -0.05195749170489
                 46.47   -0.14344713812646
                  16.7   -0.33243762329603
                 6.356   -0.21865906750347
                 1.316     1.0955904138622
 s    1 1.00
                0.3897                   1
 p    3 1.00
                 22.67   0.064834021493887
                 4.977    0.34053535983101
                 1.347    0.73464640679382
 p    1 1.00
                0.3471                   1
 d    1 1.00
                  1.64                   1

4 0
 s    3 1.00
                 13.01   0.033498726389998
                 1.962    0.23480080117413
                0.4446     0.8136829578829
 s    1 1.00
                 0.122                   1
 p    1 1.00
                 0.727                   1

5 0
 s    3 1.00
                 13.01   0.033498726389998
                 1.962    0.23480080117413
                0.4446     0.8136829578829
 s    1 1.00
                 0.122                   1
 p    1 1.00
                 0.727                   1

6 0
 s    3 1.00
                 13.01   0.033498726389998
                 1.962    0.23480080117413
                0.4446     0.8136829578829
 s    1 1.00
                 0.122                   1
 p    1 1.00
                 0.727                   1

7 0
 s    8 1.00
                 14710  0.00072067370873197
                  2207  0.0055504869689163
                 502.8   0.028254207662589
                 142.6    0.10639582836653
                 46.47    0.28668420124307
                  16.7    0.44843796582416
                 6.356    0.26464118141135
                 1.316   0.015326060993048
 s    8 1.00
                 14710  -0.00032119389049893
                  2207  -0.0025461915683188
                 502.8  -0.012643359507821
                 142.6   -0.05195749170489
                 46.47   -0.14344713812646
                  16.7   -0.33243762329603
                 6.356   -0.21865906750347
                 1.316     1.0955904138622
 s    1 1.00
                0.3897                   1
 p    3 1.00
                 22.67   0.064834021493887
                 4.977    0.34053535983101
                 1.347    0.73464640679382
 p    1 1.00
                0.3471                   1
 d    1 1.00
                  1.64                   1

8 0
 s    3 1.00
                 13.01   0.033498726389998
                 1.962    0.23480080117413
                0.4446     0.8136829578829
 s    1 1.00
                 0.122                   1
 p    1 1.00
                 0.727                   1

[5d]
[7f]
[9g]

[MO]
 Sym= A
 Ene=               0
 Spin= Alpha
 Occup=    1.00000
   1    -0.00018722675661855
   2    8.5305026233542e-05
   3    0.0028032390976793
   4    0.00039007777418864
   5    -1.2088721440846e-05
   6    -4.987556597526e-06
   7    0.0014194938215202
   8    0.00014788077569906
   9    1.0129235560484e-05
  10    1.9871142062249e-05
  11    -0.00011725263983702
  12    -2.5438590542058e-07
  13    -4.2526110613972e-05
  14    -4.8059959692281e-06
  15       1.0021091337557
  16    0.0049070389256354
  17    -0.008510478452571
  18    0.00035976519567918
  19    -7.096918021799e-05
  20    0.00069456450818136
  21    0.0011897191073799
  22    -8.2748507093498e-05
  23    0.00038879611212554
  24    0.00010024921384926
  25    -8.8302226981097e-06
  26    2.3268194692384e-05
  27    -0.0001356088734944
  28    -1.0709294442803e-05
  29    0.00014753262377988
  30    0.00064606499086433
  31    0.00010950724223814
  32    -9.9666409295164e-05
  33    -4.6754867056732e-06
  34    -0.00035591847448336
  35    0.00015546108946245
  36    1.6558766310498e-05
  37    0.00076726676272874
  38    -0.00018531671611648
  39    -0.00011177135660058
  40    -9.5853318758667e-07
  41    -2.46574963089e-05
  42    1.2108127665514e-07
  43    0.00058690857653912
  44     0.001356202296396
  45    -2.9189191493406e-05
  46    -0.00016560632063072
  47    -0.00018266326199246
  48    0.00066918820347536
  49    0.0014147220450873
  50    -4.433103212783e-05
  51    0.00013017311289344
  52    -0.00015037851799504
  53    -7.7743466847072e-05
  54    0.00025952587254412
  55    8.4199636828441e-05
  56    1.7141452918686e-05
  57    -2.2562269896682e-05
  58    -1.4127902965602e-05
  59    -1.3611335890479e-05
  60    -0.00010858828881279
  61    1.0030218473225e-05
  62    -1.3537429970254e-06
  63    -8.1907455192792e-06
  64    9.8507496428824e-05
  65    3.021435311438e-05
  66    5.5368401723941e-05
  67    -1.8055428074275e-05
  68    -3.4126401093839e-06
  69    4.3310865150914e-06
  70    3.1559969776079e-05
  71    -1.2575618412218e-05
  72    -5.494330073993e-05
  73    0.00013913244664767
  74    6.0893906766044e-05
  75    -1.4553627480144e-05
  76    6.2918403392363e-05
 Sym= A
 Ene=               1
 Spin= Alpha
 Occup=    1.00000
   1       1.0021090409416
   2    0.0049089215978746
   3    -0.0085094106840868
   4    -0.00036111297679701
   5    0.00063634306329579
   6    0.00028448702029807
   7    -0.0011901883137124
   8    0.00037783052487951
   9    0.00012224275917685
  10    9.3102581508997e-05
  11    1.3738380464024e-05
  12    2.8024864087311e-05
  13    -0.00013980761423654
  14    2.3984106617528e-06
  15    -0.00018725835070739
  16    8.5117715328784e-05
  17    0.0028030258729285
  18    -0.00038976566595704
  19    3.2481376485374e-06
  20    -1.3067655986667e-05
  21    -0.0014192953297161
  22    -6.4549249113566e-05
  23    0.00013309831504065
  24    2.4944356241902e-05
  25    6.2847737608349e-05
  26    -3.719545535916e-06
  27    -3.9559251935007e-05
  28    9.9217387513405e-05
  29    -1.4140070909034e-05
  30    -1.3598021088174e-05
  31    -0.00010851633877114
  32    -1.0048681437581e-05
  33    -6.4450708831842e-06
  34    -5.3436640810622e-06
  35    -9.8574640846998e-05
  36    3.2722400678258e-05
  37    5.379372007643e-05
  38    -1.4992343541837e-05
  39    1.2590652286571e-05
  40    2.2667066431471e-06
  41    3.3324995036835e-05
  42    -3.3371789031892e-06
  43    -5.60529532569e-05
  44    0.00013870224913883
  45    -6.0830700602814e-05
  46    6.1736396190902e-05
  47    1.8816977262615e-05
  48    -7.6585765173127e-05
  49    0.00026000880280703
  50    -8.4232775217544e-05
  51    -2.8158470047036e-05
  52    3.6039242346004e-06
  53    0.00067050846276415
  54    0.0014150823075478
  55    4.4349157824326e-05
  56    -0.00019521399408354
  57    3.742779339835e-05
  58    0.0001475970401378
  59    0.00064602724619454
  60    0.00010937420636673
  61    9.9630721342935e-05
  62    -0.00030577312772525
  63    -0.0001819311221928
  64    -0.00015542962234719
  65    0.00065630817586127
  66    0.00039810951095801
  67    3.8470387188504e-05
  68    5.5781672247464e-05
  69    -0.0001501165301394
  70    0.00010452108357143
  71    9.6867041237946e-05
  72    0.00058935060852598
  73    0.0013568860115392
  74    2.925558538305e-05
  75    -7.5420749286232e-05
  76    -0.00023453872743681
 Sym= A
 Ene=               2
 Spin= Alpha
 Occup=    1.00000
   1    -0.00016592970953028
   2    0.00021551208013957
   3    0.0027195401322018
   4    -0.00033640079999446
   5    0.0007098612842864
   6    0.00040421891475315
   7    -7.2944112376935e-05
   8    0.0011480723034328
   9    0.00072873956110599
  10    -3.366096907215e-05
  11    -5.0940354556569e-05
  12    0.00011950577719217
  13    -8.7172078800521e-05
  14    -9.1267484656154e-05
  15    6.811530823973e-06
  16    -7.9105004104346e-06
  17    -0.00074520993937223
  18    0.00013707156423442
  19    -1.6200556070062e-05
  20    2.9218101104638e-06
  21    0.0002367599474684
  22    -9.0131859651081e-05
  23    -6.5831547545197e-05
  24    1.3455844151066e-05
  25    1.499598498514e-05
  26    3.460257324277e-05
  27    -5.3247694982556e-05
  28    1.4889939170501e-05
  29    2.6906729423576e-05
  30    5.061581593767e-05
  31    -6.4064592061932e-05
  32    -2.6487225112891e-05
  33    -9.9022627864729e-06
  34    1.0033365740666e-05
  35    0.00013281155730669
  36    1.7257965051728e-06
  37    -1.003805097579e-05
  38    7.9647761864798e-06
  39    -8.7777571596862e-06
  40    4.9466443931381e-06
  41    -1.5865723717153e-05
  42    8.1516176170327e-06
  43    1.987699755676e-05
  44    0.0002257036775343
  45    -3.5767344230331e-05
  46    1.8724021068579e-05
  47    7.3311533216919e-06
  48    3.4842361707187e-05
  49    -0.00010244251781064
  50    7.4223497437191e-05
  51    -1.4635712081362e-05
  52    -1.4371650371953e-05
  53    -0.00025912180158807
  54    -0.00017230566423863
  55    -1.214594293055e-06
  56    -0.00013775385647832
  57    -7.7357975682634e-05
  58       1.0009640034698
  59    0.0010410938016997
  60    -0.0049316560232826
  61    0.00060277898482696
  62    -0.0016224922192051
  63    -0.00092595160836609
  64    -0.00026778356353417
  65    0.00064868278017761
  66    0.0003831768021298
  67    2.5449549932059e-05
  68    4.1459150352041e-05
  69    -0.00011324422852771
  70    8.9564858297437e-05
  71    7.2210285326545e-05
  72    -0.00023184588217027
  73    -0.0001108222438573
  74    7.4036789900762e-06
  75    -0.00012848935526861
  76    -7.6870832143287e-05
 Sym= A
 Ene=               3
 Spin= Alpha
 Occup=    1.00000
   1    7.7038849923764e-06
   2    -4.5637760502324e-06
   3    -0.00074671980608492
   4    -0.00013593812262603
   5    9.9022886551842e-06
   6    -7.2864361156711e-06
   7    -0.00024315381722916
   8    -1.3856448742052e-05
   9    -0.00011240828352394
  10    5.8366274449714e-05
  11    -1.7505591081317e-05
  12    4.0678144533648e-06
  13    -2.6188861950736e-05
  14    -5.1569681602275e-06
  15    -0.00016166149525648
  16    0.00025478969997596
  17    0.0027383212417276
  18    0.00035306664531307
  19    -4.7481417094905e-06
  20    0.00087386121036124
  21    7.5243520329066e-05
  22    5.5628876402078e-05
  23     0.001366762870623
  24    0.0001531122455356
  25    0.00010737000961475
  26    -5.3786528720057e-06
  27    2.0430867708013e-05
  28    -2.0377560297425e-06
  29       1.0009651954571
  30    0.00078471248493714
  31    -0.0052397463476089
  32    -0.00063506952887661
  33    -2.6482930036271e-05
  34    -0.0020544920535669
  35    0.00024605149681295
  36    -1.7474733174969e-05
  37    0.0006248417762805
  38    -0.00014178436028382
  39    -8.1198507033434e-05
  40    1.9759977323643e-06
  41    -9.3732612274191e-06
  42    4.0954653902197e-07
  43    -0.00023660101050238
  44    -0.00012424263639714
  45    -6.6217541422987e-06
  46    -2.4782173357384e-06
  47    -0.00014756160200966
  48    -0.0002582165990174
  49    -0.00017942907036502
  50    1.8600759078529e-06
  51    2.1666291816888e-06
  52    -0.00015569266336153
  53    3.6930574018246e-05
  54    -0.00010629259347911
  55    -7.3923450475486e-05
  56    -4.984696735848e-06
  57    -1.956563992238e-05
  58    2.6748294263295e-05
  59    5.0380717025924e-05
  60    -6.296473188955e-05
  61    2.7196339664503e-05
  62    1.4330231132103e-05
  63    -2.4525021279586e-06
  64    -0.00013172783805576
  65    -9.1734029718239e-06
  66    -3.6530616276508e-06
  67    1.2938490582413e-05
  68    -2.6966049910947e-06
  69    1.6297068780068e-06
  70    -1.3013925245123e-05
  71    1.1613168689398e-05
  72    1.9867078100049e-05
  73    0.00022488576137242
  74    3.5542926782397e-05
  75    -2.8747873547357e-06
  76    1.9199508737472e-05
 Sym= A
 Ene=               4
 Spin= Alpha
 Occup=    1.00000
   1    -0.00054584740914536
   2    0.00029159542189304
   3     0.008878207432293
   4    0.0014161339094394
   5    -0.0084614838438303
   6    0.0012409174260937
   7    -0.012130896127167
   8    -0.028075582744196
   9    0.0032578756416038
  10    -0.00021501273908342
  11    1.2931107465378e-05
  12    0.00052906521824581
  13    -0.00039718795615859
  14    -0.0021140154724027
  15    -1.4879130437658e-05
  16    0.0011696114093405
  17     0.007909589248751
  18    -0.00039191609287559
  19    -0.0059738606570558
  20    0.0022993215882783
  21    -0.0072980444749105
  22     0.033287818265692
  23    -0.00024946534321871
  24    -0.00055324011322796
  25    0.00076281752214888
  26     0.036501380531869
  27    0.00088521794739226
  28    0.0074311841266389
  29    0.00033989397011838
  30    -0.0053725594573335
  31    -0.0074890786787288
  32     0.015605464765242
  33      0.66699397085335
  34    -0.010253057290048
  35     0.011728921301687
  36       0.4711231308243
  37    -0.0074186306839008
  38    0.00048420533807045
  39    -0.00016171966738872
  40    -0.012012652296553
  41    0.00018102344955134
  42    -0.0043255950932374
  43     0.052841086509139
  44     0.056936069993296
  45    -0.00054817488622891
  46    -0.0011510564422093
  47    0.0018005466030591
  48    -0.054331252208315
  49    -0.054012042723892
  50    0.00034896803976478
  51    -0.0010907402265649
  52    -0.0013738857985868
  53    -0.0002190137055723
  54     -0.02832230985999
  55    -0.0013921137401522
  56    -0.00067344486003464
  57    -0.00030186234958042
  58    -0.0014940402550719
  59    -0.0033443355924338
  60     0.010075254558122
  61    -0.0042727033096874
  62    0.00038720789640646
  63    -0.0036194948226937
  64    0.0014699577781645
  65    0.00022358109882135
  66    -0.0026169659541752
  67    -0.00016692896862794
  68    0.00036054662652402
  69    -0.00013526253974032
  70    0.00035176360832676
  71    -0.00010788819957569
  72    -0.0027723379845999
  73    -0.00012430964157239
  74    0.00049850198786299
  75    0.00046042213173747
  76    -0.00016502666524973
 Sym= A
 Ene=               5
 Spin= Alpha
 Occup=    1.00000
   1    0.0015252020953728
   2     0.030589502781014
   3     0.077422996492083
   4     0.048806998311538
   5    -0.0047487128478355
   6     0.010455185834896
   7     0.036761632243274
   8    -0.0063859140765093
   9    -0.030331867267484
  10    -0.0031732599262233
  11    0.00033211231889284
  12    0.00013637515592992
  13    0.00033338161481786
  14    0.00074253668028833
  15    0.0015790896702519
  16    -0.00047809095985318
  17    -0.0085960369494349
  18    -0.0019085048843422
  19    0.00023723666236383
  20    -0.0017353719791372
  21     0.032428620326243
  22    0.00026706674175478
  23     0.015984894567852
  24    -0.018371243914152
  25     0.027706508001848
  26    -0.0013626729958436
  27     0.014153754017949
  28    0.00028759713420681
  29    0.0013864605779067
  30    0.0026141223460066
  31    -0.010912683161827
  32      0.63625213265632
  33    -0.018426989373006
  34     -0.19649195570991
  35      0.45069462309582
  36    -0.012911555950338
  37      -0.1356527627573
  38     0.006324690748757
  39    -0.010665993345003
  40    0.0004222789551238
  41    -0.0037666185913905
  42    -0.00013095501133349
  43    -0.029946236580243
  44    -0.026606356398134
  45    -0.0017757094593301
  46    -1.2156336561313e-05
  47    -0.0013956438138283
  48    -0.025586555092683
  49    -0.022120923403533
  50    -0.001794673337868
  51    0.00021458057368453
  52    -0.001509594616985
  53     0.011374371480531
  54    -0.0071639898176087
  55    -3.5330930841013e-05
  56    0.00099841073588232
  57    0.00065285737335496
  58    4.6123955271481e-05
  59    0.0022608745471696
  60    0.0061700093512061
  61    0.0027953820466473
  62    -0.0028088617812941
  63    0.0035053264115466
  64    -0.0048963361540029
  65    -0.0034671852575645
  66    0.0019607105806471
  67    -0.00026828453806824
  68    -0.0008650057712299
  69    0.00017476305595499
  70    -0.00041149948405573
  71    -0.00038424219561002
  72    -0.021246174152319
  73    -0.036063994530141
  74     0.002441890212674
  75    0.00030704177766186
  76    -0.0014076159567531
 Sym= A
 Ene=               6
 Spin= Alpha
 Occup=    1.00000
   1    -0.0013984988368378
   2    -0.0019464666463627
   3    0.0028133033705163
   4    -0.0008694188393002
   5    0.00015434395627856
   6      0.00106234252988
   7     0.025493175366887
   8    -0.0035909780039418
   9    -0.021165150116548
  10    -0.0056623952107542
  11     0.015670033961098
  12    -0.0011486148739534
  13    -0.025610157047666
  14     0.019497140124144
  15    -0.0011080439865809
  16    -0.026501935300048
  17    -0.071966914821129
  18     0.043879909709111
  19    -0.013406715970772
  20    0.0016927403636827
  21     0.026637498538803
  22     0.012104301766853
  23     0.028733241516999
  24    -0.0005514936887586
  25    -8.273990890084e-05
  26    0.0020012685530453
  27    -0.0021660947678816
  28    0.00035315800727489
  29    0.00065786633058103
  30    -0.0004343001656841
  31    -0.010162382115939
  32    0.00044989673111862
  33    -0.0023364279118271
  34    0.0013027942335876
  35    -0.0036477129478561
  36    -0.0018421687873457
  37    0.0023371214552673
  38    -0.00022958881370572
  39    -0.00063474824426903
  40    0.00028972316030378
  41    -0.00012403727619112
  42    -0.00031755931102578
  43     0.021194404392413
  44     0.032262418003474
  45    0.0023329998768427
  46    0.0014598135773951
  47    0.00027878653039356
  48    -0.010098620703732
  49     0.019381178108009
  50    -0.00067484898427374
  51    -0.00013265378881374
  52    -0.00070627939072833
  53     0.045616103118763
  54     0.044256651539217
  55    -0.0014933928420109
  56    0.0013754483561342
  57    0.0013554964697726
  58    -0.0014048062160021
  59    0.0039252908755523
  60     0.017594500091649
  61      0.56781289706783
  62      0.30508356129363
  63     -0.16799096362333
  64      0.40250904308221
  65      0.21310211434007
  66     -0.12002541391582
  67    0.0026178475589012
  68    -0.0066000861820377
  69    -0.00034866572152987
  70    0.0081401055073807
  71     -0.00711198920148
  72    0.0015340031824016
  73    -0.0030088387622336
  74    -0.0017928789413178
  75    7.5218982032945e-05
  76    0.00060314688960718
 Sym= A
 Ene=               7
 Spin= Alpha
 Occup=    1.00000
   1    -0.0008944485055971
   2    -0.0010993835825801
   3    0.0097254206818383
   4    0.00063885369187012
   5    0.0016040060103973
   6    -0.00093776818810118
   7     0.021813916939862
   8    -0.022141699014788
   9     0.022514026550938
  10     0.027306333124474
  11    0.00053642884290217
  12     0.019835508919378
  13    0.0052376164070133
  14     0.014024152776817
  15    -0.0012230978843569
  16    -0.013962542005138
  17    -0.028257690001499
  18     0.021738222615451
  19    -0.0014524727497715
  20    -0.0064016412322432
  21     0.027589198161923
  22     0.025403456022774
  23    -0.010025188568296
  24    0.00045584758163515
  25    0.0018824035395486
  26    0.00097040923103501
  27    -0.0010492205785832
  28    -0.00081920065164384
  29    -0.0013251518660054
  30    -0.0040172272175141
  31     0.005706937336018
  32    0.0051679925660886
  33    -0.0050216625882008
  34    -0.00086610728041714
  35    -0.0034211179021329
  36    -0.0036330102515083
  37    8.2880654880519e-05
  38    -0.00047469631059994
  39    -0.00043561505569095
  40    0.00011111892867201
  41    0.00024279482394108
  42    -0.00057911525043963
  43    0.0080445052504403
  44       0.0169824254827
  45    0.00067637162140663
  46    0.00037138494660658
  47    0.00050646084749079
  48    -0.0057122044282317
  49    -0.021192092826478
  50    0.0012203132956582
  51    4.1309013922765e-05
  52    -0.0012320599177087
  53    -0.033825928679877
  54     -0.03600631785242
  55    -0.0010264032247435
  56    0.00010495763879837
  57    -0.0012173119041537
  58    -0.00046503872368075
  59    0.0053153102940831
  60     0.012095727649911
  61      0.28358500956931
  62     -0.21957068523832
  63      0.56257283850011
  64      0.20031755770262
  65     -0.15648424184399
  66      0.39621435932909
  67    -0.0090461139472961
  68    0.00087147561468612
  69    -0.0066543623058112
  70    -0.0017165853251968
  71    -0.0060238611055169
  72     0.057310693228829
  73     0.061855036505711
  74    -0.00045070648127069
  75    0.0023376203265282
  76    4.2752998772442e-06
 Sym= A
 Ene=               8
 Spin= Alpha
 Occup=    1.00000
   1    0.0028275464980643
   2     -0.14075268174687
   3      0.01091266456727
   4      0.09086987937768
   5     -0.24176467452481
   6     -0.13810787000045
   7     0.025798923159177
   8    -0.043073282913377
   9    -0.025633704833282
  10     0.010168899409791
  11     0.013988935121631
  12    -0.039493592816949
  13     0.028569516880516
  14     0.026037751333231
  15    -0.00075732508648091
  16      0.01151856126442
  17     -0.00684828166018
  18    -0.025075682321788
  19    0.0063656955168424
  20    -0.0018259008982099
  21    -0.010892296445053
  22    0.0014489244935797
  23    0.0025650671303385
  24    0.0020120914248309
  25     0.005349392117159
  26    0.00067110753770673
  27    -0.0038294208749444
  28    0.0093589330302026
  29    0.00031409686126256
  30    0.0013841569831511
  31    -8.7245142380857e-05
  32    -0.0016843332194664
  33    -0.00015547297526555
  34    -0.0041180943903351
  35    0.0027945227205526
  36    -0.00035710557013559
  37    -0.0025313894291669
  38    -6.9543723972188e-05
  39    0.00043739446878339
  40    -6.9437881590602e-05
  41    -1.5627524085024e-06
  42    0.00028763340752874
  43    -0.022010914835605
  44     -0.01787350620154
  45    0.00044061540974212
  46    0.00044216086079767
  47    5.3862295263905e-05
  48     0.011178461787055
  49     0.011436583624931
  50    -0.001022365710804
  51    -0.0008761489363083
  52    -0.00025872231544493
  53     0.016860625259268
  54     0.020329777318918
  55    0.0014599623330712
  56    -0.009188072941802
  57    -0.0034141939685889
  58    0.0073116849989771
  59     -0.22547978691018
  60     -0.20578682931676
  61      -0.1345102022991
  62       0.3802076659827
  63      0.22021157224726
  64    -0.088271121318277
  65      0.24809012477184
  66      0.14386543768032
  67    0.0031075173398634
  68    0.0051482684497917
  69    -0.013781813039026
  70     0.010079059154537
  71    0.0088234307008147
  72     0.014676604559182
  73     0.018529579352454
  74    0.0015154077892679
  75    -0.0076031044030372
  76    -0.0062675592499615
 Sym= A
 Ene=               9
 Spin= Alpha
 Occup=    1.00000
   1    -0.00080769906669025
   2     0.011977084424732
   3    -0.0065671005320843
   4     0.024561405810577
   5    -0.0041095902421486
   6     0.002573790841747
   7      0.01074638431376
   8    0.0017317563068393
   9    0.0018456425224392
  10    0.0028261233322818
  11    -0.010734716679875
  12    0.00020929021349317
  13    -0.0033614832560678
  14    2.6141641475916e-05
  15    0.0027707057219949
  16     -0.13997755433414
  17      0.01132020146601
  18    -0.090184626168013
  19    0.0013735043976582
  20     -0.27918066401009
  21    -0.025487670218251
  22    -0.00056511510647029
  23    -0.050451918097347
  24    -0.049460550121001
  25    -0.029456962927357
  26    0.00025801518460172
  27    -0.0058756996570516
  28    0.00086774841486921
  29    0.0073034776807076
  30     -0.22552674762746
  31     -0.20574777774909
  32      0.13477376320189
  33    0.00062843646548259
  34      0.43925062091596
  35     0.088367632147835
  36    0.00055078550610392
  37      0.28672222097412
  38    -0.017255324703112
  39    -0.010227743518993
  40    -0.00019730199828813
  41    -0.0016945540446864
  42    -4.8648681338162e-05
  43     0.015483587531269
  44     0.018751373801251
  45    -0.0015313812884765
  46    -0.0015441197798378
  47    -0.0096913147595827
  48     0.017700048840788
  49     0.020386245039163
  50    -0.0014731746834619
  51    0.0015425841923408
  52    -0.009633476227429
  53     0.010268422970818
  54     0.011063519081069
  55    0.00096744442080102
  56    0.0001803238408453
  57    -0.00090855309586305
  58    0.00031040910188438
  59    0.0013664180138923
  60    -0.00010956282511561
  61    0.0016800832445826
  62    -0.0034801114245051
  63    -0.0021064661428775
  64    -0.002761391897317
  65    -0.0020586683948593
  66    -0.0013925330332459
  67    -1.8572181875013e-05
  68    -0.00047145676253387
  69    -6.7565783827288e-05
  70    1.9368971914894e-05
  71    -0.00022579368993298
  72    -0.019943450201099
  73    -0.017107562744419
  74    -0.00036993849885466
  75    -0.00016708027939589
  76    0.00054385382056831
 Sym= A
 Ene=              10
 Spin= Alpha
 Occup=    1.00000
   1    -0.0068733125917156
   2    -0.069849573415719
   3    -0.035461418453612
   4     0.030125140942714
   5    -0.081473880958504
   6     -0.04682676894782
   7    0.0012225323041845
   8    -0.0094281128495542
   9    -0.0062666027979483
  10     0.001421511829904
  11    0.0010251776226227
  12    -0.0046157099495555
  13    0.0031625262512058
  14    0.0023005773349003
  15    -0.0012815020803289
  16    -0.0025066999599091
  17     0.008697067970645
  18    -0.0018128601918059
  19    -0.0063348451103416
  20    -0.0029773080629585
  21    -0.015018151888062
  22    -0.0024843024642111
  23     0.004235713029039
  24    0.0011492164613805
  25    0.0027151912426609
  26    -5.8099329324577e-06
  27    -0.0011477780621004
  28    0.0039772652050003
  29    0.00039193194897923
  30    0.00085138099640838
  31    -0.0023616545257448
  32    0.00060540603022906
  33    -0.00039521067314206
  34    -0.0017964994050161
  35    0.0024067617283778
  36    0.00090383426725174
  37    -0.00044052536988035
  38    -8.6497327340504e-05
  39    -4.2717908223065e-05
  40    6.3812845419148e-05
  41    -8.3058214705817e-05
  42    8.7481960411475e-05
  43    -0.0020297527994124
  44    -0.0018545476817935
  45    -0.00052550184844423
  46    0.0010323982373972
  47    0.00027930706916185
  48    -0.0010701993705061
  49    0.0089069498711424
  50    0.00031673369487798
  51    -0.00039846554499506
  52    -0.00023389964628606
  53    -0.0018590843262847
  54     0.014689397304971
  55    0.0011995618475654
  56    -0.0033985359460197
  57    -0.0020249374412247
  58    -0.0022395436086839
  59      0.43940665043157
  60      0.52660940676954
  61     -0.10540017542516
  62      0.26163318503533
  63      0.14814722663959
  64    -0.072839083153648
  65      0.18068580604078
  66      0.10163059098484
  67    0.0012700294065023
  68    0.0021319251257397
  69    -0.0057190798174275
  70    0.0042063074815819
  71    0.0037681112009109
  72    -0.0024197926297534
  73     0.014574926605473
  74    0.0013417982149031
  75    -0.0035018622748265
  76    -0.0019361483816828
 Sym= A
 Ene=              11
 Spin= Alpha
 Occup=    1.00000
   1    -0.0013256698021415
   2    -0.0032792921164285
   3    0.0072509633422871
   4    0.00091321305285735