[Molden Format]
made by pyscf v[2.0.1]
[Atoms] (AU)
C   1   6     0.00000000000000     0.00000000000000     0.00000000000000
C   2   6     2.85207482267819     0.00000000000000     0.00000000000000
F   3   9     3.65415199667903     0.00000000000000     2.45977207315200
H   4   1     3.58561868306314    -1.66499644088808    -0.96128614334650
H   5   1     3.58561868306314     1.66499644088808    -0.96128614334650
H   6   1    -0.73354386038494    -0.96128614334650     1.66499644088808
F   7   9    -0.80207717400084     2.45977207315200     0.00000000000000
H   8   1    -0.73354386038494    -0.96128614334650    -1.66499644088808
[GTO]
1 0
 s    8 1.00
                  6665  0.00069158396281299
                  1000  0.0053257961529341
                   228   0.027060721042034
                 64.71    0.10165684614077
                 21.06     0.2745748236174
                 7.495    0.44829431892377
                 2.797    0.28490261071525
                0.5215   0.015194859206082
 s    8 1.00
                  6665  -0.00029326965268655
                  1000  -0.0023180354739745
                   228  -0.011499786038565
                 64.71  -0.046826727009787
                 21.06   -0.12846616875047
                 7.495   -0.30126627246289
                 2.797   -0.25563070233011
                0.5215      1.093793361012
 s    1 1.00
                0.1596                   1
 p    3 1.00
                 9.439   0.056979251590039
                 2.002    0.31320721150073
                0.5456    0.76037674173753
 p    1 1.00
                0.1517                   1
 d    1 1.00
                  0.55                   1

2 0
 s    8 1.00
                  6665  0.00069158396281299
                  1000  0.0053257961529341
                   228   0.027060721042034
                 64.71    0.10165684614077
                 21.06     0.2745748236174
                 7.495    0.44829431892377
                 2.797    0.28490261071525
                0.5215   0.015194859206082
 s    8 1.00
                  6665  -0.00029326965268655
                  1000  -0.0023180354739745
                   228  -0.011499786038565
                 64.71  -0.046826727009787
                 21.06   -0.12846616875047
                 7.495   -0.30126627246289
                 2.797   -0.25563070233011
                0.5215      1.093793361012
 s    1 1.00
                0.1596                   1
 p    3 1.00
                 9.439   0.056979251590039
                 2.002    0.31320721150073
                0.5456    0.76037674173753
 p    1 1.00
                0.1517                   1
 d    1 1.00
                  0.55                   1

3 0
 s    8 1.00
                 14710  0.00072067370873197
                  2207  0.0055504869689163
                 502.8   0.028254207662589
                 142.6    0.10639582836653
                 46.47    0.28668420124307
                  16.7    0.44843796582416
                 6.356    0.26464118141135
                 1.316   0.015326060993048
 s    8 1.00
                 14710  -0.00032119389049893
                  2207  -0.0025461915683188
                 502.8  -0.012643359507821
                 142.6   -0.05195749170489
                 46.47   -0.14344713812646
                  16.7   -0.33243762329603
                 6.356   -0.21865906750347
                 1.316     1.0955904138622
 s    1 1.00
                0.3897                   1
 p    3 1.00
                 22.67   0.064834021493887
                 4.977    0.34053535983101
                 1.347    0.73464640679382
 p    1 1.00
                0.3471                   1
 d    1 1.00
                  1.64                   1

4 0
 s    3 1.00
                 13.01   0.033498726389998
                 1.962    0.23480080117413
                0.4446     0.8136829578829
 s    1 1.00
                 0.122                   1
 p    1 1.00
                 0.727                   1

5 0
 s    3 1.00
                 13.01   0.033498726389998
                 1.962    0.23480080117413
                0.4446     0.8136829578829
 s    1 1.00
                 0.122                   1
 p    1 1.00
                 0.727                   1

6 0
 s    3 1.00
                 13.01   0.033498726389998
                 1.962    0.23480080117413
                0.4446     0.8136829578829
 s    1 1.00
                 0.122                   1
 p    1 1.00
                 0.727                   1

7 0
 s    8 1.00
                 14710  0.00072067370873197
                  2207  0.0055504869689163
                 502.8   0.028254207662589
                 142.6    0.10639582836653
                 46.47    0.28668420124307
                  16.7    0.44843796582416
                 6.356    0.26464118141135
                 1.316   0.015326060993048
 s    8 1.00
                 14710  -0.00032119389049893
                  2207  -0.0025461915683188
                 502.8  -0.012643359507821
                 142.6   -0.05195749170489
                 46.47   -0.14344713812646
                  16.7   -0.33243762329603
                 6.356   -0.21865906750347
                 1.316     1.0955904138622
 s    1 1.00
                0.3897                   1
 p    3 1.00
                 22.67   0.064834021493887
                 4.977    0.34053535983101
                 1.347    0.73464640679382
 p    1 1.00
                0.3471                   1
 d    1 1.00
                  1.64                   1

8 0
 s    3 1.00
                 13.01   0.033498726389998
                 1.962    0.23480080117413
                0.4446     0.8136829578829
 s    1 1.00
                 0.122                   1
 p    1 1.00
                 0.727                   1

[5d]
[7f]
[9g]

[MO]
 Sym= A
 Ene=               0
 Spin= Alpha
 Occup=    1.00000
   1    -0.00019192323657193
   2    8.1178350574814e-05
   3    0.0028461772609651
   4    0.0003849970111529
   5    -3.9140339598414e-06
   6    8.4092996497614e-06
   7    0.0014687178954868
   8    0.00018180616097171
   9    -0.00017189850322307
  10    2.0941400370985e-05
  11    -0.00011394157424342
  12    -6.211910172933e-06
  13    -4.2544669850484e-05
  14    -3.9687103220111e-06
  15       1.0021163265381
  16    0.0049267509490926
  17    -0.0085893926057244
  18    0.00036307008055767
  19    -7.7086916812507e-05
  20    0.00071807425811305
  21    0.0012040662855732
  22    -7.8649490198876e-05
  23    0.00045933306250694
  24    0.00010223185452296
  25    -1.5682691096628e-05
  26    1.8918721637559e-05
  27    -0.00014082779848165
  28    -9.9576054351199e-06
  29    0.00015482305407181
  30    0.00066061041613877
  31    6.8085870182892e-05
  32    -9.8047890566293e-05
  33    -4.5813274000394e-06
  34    -0.00035448543246125
  35    0.00016044344083326
  36    2.0488895480859e-05
  37    0.00077258965589281
  38    -0.00018641987200549
  39    -0.00011356183849587
  40    -1.9088853432339e-06
  41    -2.4805475887347e-05
  42    -1.4705915000237e-07
  43    0.00059833195017055
  44    0.0013841274619216
  45    -2.8355218728474e-05
  46    -0.00016055152055812
  47    -0.0001847991075866
  48    0.00067640281036174
  49    0.0014233351752167
  50    -4.1830405426367e-05
  51    0.00012093215067931
  52    -0.00015647717585936
  53    -6.5800459496246e-05
  54    0.00036521786351903
  55    0.00010070586053847
  56    1.7577730664196e-06
  57    -2.1701725126475e-05
  58    -2.4182325214301e-06
  59    4.951893580911e-06
  60    -0.00016863971010172
  61    7.8159762420549e-06
  62    3.3746693240271e-06
  63    -7.4638403952014e-06
  64    4.1917898568992e-05
  65    3.0766387345494e-05
  66    4.4357387954126e-05
  67    -2.1618137494783e-05
  68    3.7616304702081e-06
  69    1.6472282930319e-06
  70    2.230591044451e-05
  71    -1.0020247206248e-05
  72    -7.2049903457318e-05
  73    7.3323021195067e-05
  74    5.0116766171966e-05
  75    1.8813189847683e-05
  76    5.5869106225587e-05
 Sym= A
 Ene=               1
 Spin= Alpha
 Occup=    1.00000
   1       1.0021163262567
   2    0.0049267567784501
   3    -0.008589389295542
   4    -0.00036307687528523
   5    0.00071806862808137
   6    -7.7084638080904e-05
   7    -0.0012040701029744
   8    0.00045933118263522
   9    -7.8648365567278e-05
  10    7.0844934923962e-05
  11    9.9575566110507e-06
  12    1.8918704226362e-05
  13    -0.00015894861075713
  14    1.5681861056679e-05
  15    -0.00019192252683295
  16    8.1178039433415e-05
  17    0.0028461789706555
  18    -0.00038499531023011
  19    8.4091805853837e-06
  20    -3.9137317904706e-06
  21    -0.0014687174754395
  22    -0.00017189891103181
  23    0.00018180566041632
  24    2.6374087588583e-05
  25    3.9687109560757e-06
  26    -6.21185543265e-06
  27    -3.9408031867183e-05
  28    0.0001139417569142
  29    -2.417207408221e-06
  30    4.9498650931548e-06
  31    -0.00016864206292858
  32    -7.8146259316001e-06
  33    -7.4620311235928e-06
  34    3.3726655294881e-06
  35    -4.1917038050539e-05
  36    4.4358758841818e-05
  37    3.0765029467231e-05
  38    -8.508358456074e-06
  39    1.0020218592416e-05
  40    1.6471902583991e-06
  41    2.9874805588494e-05
  42    -3.7616313690089e-06
  43    -7.205001560814e-05
  44    7.3322334034316e-05
  45    -5.0116770611858e-05
  46    5.5869111384653e-05
  47    1.8813178459271e-05
  48    -6.5799984498775e-05
  49    0.0003652177922539
  50    -0.00010070565272724
  51    -2.1701782795145e-05
  52    1.7577949389471e-06
  53    0.00067641050752316
  54    0.0014233364257626
  55    4.1830618298077e-05
  56    -0.00015647697070671
  57    0.00012093139404846
  58    0.00015480923960135
  59    0.00066061162668029
  60    6.8087022832044e-05
  61    9.8024099692697e-05
  62    -0.00035449123875195
  63    -4.5796605962024e-06
  64    -0.00016045981165079
  65    0.00077258582561264
  66    2.0489925228067e-05
  67    0.00011469209958095
  68    1.4708279998258e-07
  69    -1.9089486671055e-06
  70    0.00014904123175984
  71    0.00011356230192732
  72    0.00059833664986178
  73    0.0013841280693183
  74    2.8355340775229e-05
  75    -0.00018479901390824
  76    -0.00016055091931012
 Sym= A
 Ene=               2
 Spin= Alpha
 Occup=    1.00000
   1    -0.00016321392897812
   2     0.000233592877497
   3    0.0027520637766072
   4    -0.00034027993809375
   5    0.00084397262157854
   6    -3.0085470990428e-06
   7    -7.0203497678034e-05
   8    0.0013483411049645
   9    -2.7421261701233e-06
  10    -8.5462702181479e-05
  11    -7.8724700625648e-06
  12    -3.6483284753235e-06
  13    -0.00011962604860817
  14    -9.1100027537762e-05
  15    2.6234433385658e-05
  16    2.5932182266973e-05
  17    -0.00087762483694581
  18    0.0001348140160794
  19    7.8393144631133e-06
  20    7.6829075396449e-07
  21    0.00025314376468254
  22    -0.00024392020990871
  23    9.4041635140987e-05
  24    -3.140939402313e-05
  25    -2.5135261725408e-06
  26    -2.0744586526461e-05
  27     -6.7415113692e-05
  28    2.9015809864527e-05
  29    2.3545458793885e-05
  30    4.9485675672954e-05
  31    -3.5554636422902e-05
  32    -3.4690620858231e-05
  33    3.267516873536e-06
  34    -6.3936150162684e-06
  35    8.0916597544783e-05
  36    -8.3920455648253e-06
  37    -1.3738654996446e-05
  38    1.0710504235689e-05
  39    -3.3345426261828e-06
  40    -3.0493594872261e-06
  41    -8.6572178165134e-06
  42    7.1552539624421e-06
  43    5.0383915869893e-05
  44    0.00014084568862241
  45    -2.9732235400287e-05
  46    3.9194832870129e-05
  47    -2.2628743672214e-05
  48    2.2217050358398e-05
  49    5.5259031843382e-05
  50    6.4223941405279e-05
  51    -9.6214272164658e-06
  52    -1.2030788366299e-05
  53    -0.00026001874848079
  54    -0.00014369427880016
  55    1.4833525638186e-06
  56    -0.00015454597986375
  57    7.3863880728736e-06
  58       1.0009608821745
  59    0.00091865870691059
  60    -0.0050461990434153
  61    0.00064354911629303
  62    -0.0019384868632533
  63    -2.1494289682973e-05
  64    -0.00022203704761717
  65    0.00068126304336823
  66    -1.5167220391874e-05
  67    7.7364619849381e-05
  68    -1.3071398391015e-06
  69    2.6144813210643e-06
  70    0.00012121067466588
  71    7.7753012666329e-05
  72    -0.00024590026520525
  73    -0.00016087770554763
  74    4.8637479737385e-06
  75    -0.00015145393818818
  76    -5.6139490631404e-06
 Sym= A
 Ene=               3
 Spin= Alpha
 Occup=    1.00000
   1    2.6212722177316e-05
   2    2.5869261877049e-05
   3    -0.00087756200746431
   4    -0.00013484298073353
   5    7.3345606335708e-07
   6    7.8199805321873e-06
   7    -0.00025302200702731
   8    9.4027751988028e-05
   9    -0.00024378322908125
  10    7.409570085259e-05
  11    -2.9057243729595e-05
  12    -2.0738594328403e-05
  13    -6.5214450810456e-06
  14    2.491421077056e-06
  15    -0.00016328598033627
  16    0.00023302296072287
  17     0.002751715934103
  18    0.00034002674756889
  19    -3.0758287777928e-06
  20    0.00084317026284701
  21    7.0168002646284e-05
  22    -2.4860899242194e-06
  23    0.0013482135877369
  24       0.0001463014103
  25    9.1046448582738e-05
  26    -3.3149437461033e-06
  27    1.417596559422e-05
  28    7.9475966780623e-06
  29       1.0009608625773
  30    0.00092248743635236
  31    -0.0050415930342265
  32    -0.00064337332149697
  33    -1.5369122044545e-05
  34    -0.0019356453168894
  35    0.00022214644412161
  36    -1.0830807780906e-05
  37    0.00068322696949194
  38    -0.00014372164320799
  39    -7.7777897662233e-05
  40    2.5050357956532e-06
  41    -6.3939680566879e-06
  42    1.2668627401933e-06
  43    -0.00024536151850949
  44    -0.00016020299902532
  45    -4.8798329853345e-06
  46    -5.6197649209845e-06
  47    -0.00015146819088082
  48    -0.00026048808943241
  49    -0.00014402238403623
  50    -1.4881962524424e-06
  51    7.376776782373e-06
  52    -0.00015459242382887
  53    2.2200099091362e-05
  54    5.5246973814285e-05
  55    -6.4238682134894e-05
  56    -1.2028834763828e-05
  57    -9.6216003774027e-06
  58    2.3551403268522e-05
  59    4.9490676326037e-05
  60    -3.5568724055185e-05
  61    3.4700476039018e-05
  62    -6.4009094473741e-06
  63    3.2415564391283e-06
  64    -8.0939638613707e-05
  65    -1.3739358790171e-05
  66    -8.4114746158015e-06
  67    2.1437169735962e-06
  68    -7.154260663593e-06
  69    -3.0493273050832e-06
  70    -1.3603764128863e-05
  71    3.3357392291704e-06
  72    5.0366519941694e-05
  73    0.00014092592307872
  74    2.9743850990458e-05
  75    -2.26249500411e-05
  76    3.9207664783242e-05
 Sym= A
 Ene=               4
 Spin= Alpha
 Occup=    1.00000
   1    -0.0015863923307627
   2    -0.0010894087424562
   3     0.017932730396825
   4    0.0010838901816098
   5     -0.00569486585867
   6    0.0033548694569131
   7    0.00029822022348303
   8    -0.011270103476703
   9     0.020415187208605
  10    0.00021858804974879
  11    4.2760166135513e-05
  12    0.00073677574737633
  13    -0.00071638926699266
  14    -0.002115950120803
  15    0.00039043950949229
  16    0.00045640596125824
  17    -0.0053189562384354
  18    0.00074113863319716
  19    -0.0070812444578693
  20    0.0012869813152282
  21    0.00082955339893267
  22     0.029392832819405
  23    -0.0030835160535601
  24    -0.00079540502123797
  25    0.0012725586403212
  26     0.036109890055757
  27    0.00053317245670534
  28    0.0078230826015823
  29    0.00015121965939126
  30    -0.0044838367491332
  31    -0.0047185722197485
  32     0.019698039101533
  33      0.66649810300398
  34    -0.007155453129468
  35     0.014534395327058
  36      0.47200625048973
  37    -0.0053279267505294
  38    0.00029210584908238
  39    -0.00028518505032685
  40    -0.011846532006854
  41    6.2227398307166e-05
  42    -0.0044196193844768
  43      0.05424274423113
  44     0.054963074145317
  45    -0.00065244397549485
  46    -0.0009692654343891
  47     0.002006361928365
  48    -0.054653900673167
  49    -0.052916293941287
  50    0.0003241801306794
  51    -0.00084129080380946
  52    -0.0014496131605874
  53    -0.0014605219865005
  54    -0.025649597361343
  55    -0.0025404985226695
  56    2.8507044621909e-05
  57    7.5041945993466e-06
  58    2.1326338932503e-05
  59    0.00012834028768466
  60    0.0025057911236678
  61    -0.00014188603271585
  62    0.00054229846424808
  63    -0.0037858808332556
  64    -0.00052790120872091
  65    0.0011200234065813
  66    -0.0030772594743318
  67    0.00017357456785195
  68    0.00020187634656909
  69    -3.0082495022896e-05
  70    4.2762670922676e-05
  71    0.00011466691586295
  72    -0.0005664870485995
  73    0.0094736977035422
  74    0.0014889254602839
  75    0.00029998388157322
  76    0.00038337150775943
 Sym= A
 Ene=               5
 Spin= Alpha
 Occup=    1.00000
   1    0.00039075239092776
   2    0.00045687595020942
   3    -0.0053189573493765
   4    -0.00074088466628698
   5    0.0012874237252444
   6    -0.0070812110249665
   7    -0.00083454557364377
   8    -0.0030812662195274
   9     0.029392949023581
  10    -6.4606581320191e-05
  11    -0.0078230131542618
  12     0.036109646639438
  13    0.00095929337543119
  14    -0.0012771488690795
  15    -0.0015862253616111
  16    -0.0010840471955981
  17     0.017947066440769
  18    -0.0010918458901334
  19    0.0033576953925037
  20    -0.0056951613917351
  21    -0.00030252954936349
  22     0.020412620733717
  23    -0.011272606488872
  24    0.00051119771219407
  25    0.0021159000152356
  26    0.00073662252842144
  27    -0.00054713895888479
  28    -4.2872426108586e-05
  29    2.1249485615928e-05
  30    0.00012807260736074
  31    0.0025058505791109
  32    0.00014240406558444
  33    -0.0037857672283676
  34    0.00054279777090885
  35    0.00052867424076505
  36    -0.0030768855574764
  37    0.0011206494936179
  38    -0.00012383984128885
  39    -0.00011454094076383
  40    -3.0150524374007e-05
  41    -0.00012889296019461
  42    -0.00020186568257803
  43    -0.00057024755334722
  44    0.0094680029548574
  45    -0.001489344044364
  46    0.00038317785749556
  47    0.00029977509156186
  48    -0.0014578634933471
  49    -0.025652760307402
  50    0.0025409707075158
  51    7.2021458596043e-06
  52    2.8671367134783e-05
  53    -0.054658134977195
  54    -0.052920193264706
  55    -0.0003238806272371
  56    -0.0014497966905757
  57    -0.00084125560786007
  58    0.0001605465150347
  59    -0.0044869449430344
  60    -0.0047245619684085
  61    -0.019804270869285
  62    -0.007190278081158
  63      0.66649454802465
  64    -0.014609776133961
  65    -0.0053520786697498
  66      0.47200369995429
  67    -0.00019994970739055
  68    0.0044196150854341
  69    -0.011846458165894
  70    -0.00022312195836315
  71    0.00028691519802535
  72      0.05423769795871
  73     0.054958502721236
  74    0.00065272028203475
  75    0.0020061647279399
  76    -0.00096930270539157
 Sym= A
 Ene=               6
 Spin= Alpha
 Occup=    1.00000
   1    -0.0016950308626945
   2    -0.00073363528052195
   3    0.0011860338109997
   4    -0.0022905258241948
   5    0.00042261706875856
   6    -0.00026389756133898
   7     0.029768840692039
   8     -0.01298961337632
   9    -0.00068396056691676
  10    0.0032398608403051
  11    -0.0003981299843924
  12    0.0014413720375354
  13    -0.023167718721926
  14     0.027219352529129
  15    -0.00096129733494494
  16    -0.031745488246885
  17    -0.085380570864863
  18     0.047359015435528
  19    -0.016625906087572
  20    0.0017678428443487
  21     0.026155067817396
  22     0.015551379098436
  23     0.014680973175879
  24    -0.00049298357110219
  25    0.00029681257344658
  26    0.00092123579645854
  27    -0.0021026597350978
  28    0.00052733709625118
  29    0.00042713085245285
  30    0.0015614709110946
  31    -0.0002826176180611
  32    -0.003145128339545
  33    -0.00058138323730766
  34    -0.0030645582892585
  35    -0.0047323046628555
  36    -0.0021833325418376
  37    -0.0037860518473321
  38    0.00011854975421695
  39    -0.00074813448948415
  40    0.00040195768788167
  41    -0.00027266262894883
  42    -6.7741669725808e-05
  43     0.022492842983761
  44     0.034068018870093
  45    0.0024949810330241
  46    0.0011275400501738
  47    0.0012463174867289
  48    -0.015819872666541
  49     0.018150958656848
  50    -0.002799780963167
  51    0.0018014470559821
  52    -0.00098208789337459
  53     0.025084720765428
  54     0.022732993423816
  55    -0.0018192518557579
  56    0.0012063143746285
  57    -0.00019556886891833
  58    -0.0014637851240834
  59    0.0056875324533096
  60     0.019938273999821
  61      0.63569096052564
  62       0.1980813028883
  63     0.021037299676206
  64      0.45095313503294
  65      0.13750675194551
  66     0.015104807459203
  67    -8.5725492861058e-05
  68    2.5062098488239e-05
  69    -0.00043440088664615
  70    0.0073573518998165
  71    -0.010432411859463
  72     0.029992672185868
  73     0.026727959538412
  74    -0.0016840460277072
  75    0.0012898678615517
  76    0.00020908805294482
 Sym= A
 Ene=               7
 Spin= Alpha
 Occup=    1.00000
   1    0.00096108174487478
   2     0.031745417955814
   3     0.085383378548022
   4     0.047359017138985
   5    -0.0017689019468847
   6      0.01662708673347
   7      0.02615349279493
   8    -0.014683576242086
   9    -0.015547074543144
  10    -0.0020674548882689
  11    0.00052777633616233
  12    -0.00092110424962528
  13    0.00062436198314173
  14    0.00029648720107412
  15    0.0016957628139286
  16    0.00074002164063403
  17    -0.0011836539169008
  18    -0.0022876309735894
  19    0.00026272098098475
  20    -0.000413531008411
  21     0.029768968748017
  22    0.00068898505957201
  23     0.012989996662624
  24    -0.018443498518309
  25     0.027219845195729
  26    -0.0014353520765088
  27     0.014389847806611
  28    -0.00039685688396194
  29    0.0014654441913783
  30    -0.0057293689438123
  31    -0.019988291430421
  32      0.63568450755468
  33     -0.02092594360898
  34     -0.19811075063568
  35      0.45094888650173
  36    -0.015025927501653
  37     -0.13752718204392
  38    0.0063295058685891
  39    -0.010432054509375
  40    0.00043242712783905
  41    -0.0037528450349694
  42    2.4321916741174e-05
  43    -0.029983571511638
  44    -0.026720209206815
  45    -0.0016840237498571
  46    -0.00020927533276193
  47    -0.0012891571801239
  48    -0.025093787888103
  49    -0.022743157272127
  50     -0.00181909050835
  51    0.00019544335543362
  52    -0.0012061772626989
  53     0.015819620712024
  54    -0.018157289448929
  55    -0.0028002427104308
  56    0.00098206932469752
  57    -0.0018014212553407
  58    -0.00042718448384658
  59    -0.0015615084929993
  60    0.00028337666803071
  61    -0.0031450814461091
  62    0.0030647299905025
  63    0.00058067078665314
  64    -0.0047320320036525
  65    0.0037862955688104
  66    0.0021826861739387
  67    -0.00017682712221219
  68    -6.7696337512643e-05
  69    -0.00040196537667395
  70    0.00023900328145294
  71    -0.00074810978850105
  72    -0.022492745454488
  73    -0.034065958587948
  74    0.0024952041077796
  75     -0.00124626824491
  76    -0.0011275715939329
 Sym= A
 Ene=               8
 Spin= Alpha
 Occup=    1.00000
   1    0.0030935350755368
   2     -0.13831138343293
   3     0.012259404759103
   4     0.090040125747298
   5     -0.27820146683912
   6    -0.00021303703130475
   7     0.024007020368397
   8    -0.049010267691897
   9    -0.0014966486435806
  10      0.02958571309489
  11    -0.00032277534037411
  12    -2.6131989467866e-05
  13     0.039753847221091
  14      0.03020623127308
  15    7.9034517877232e-06
  16     0.015041392002794
  17    -0.011641722688905
  18    -0.023115376978953
  19     0.008577109136213
  20    0.00039647121782881
  21    -0.011259191253472
  22    -0.0025329751002748
  23    0.0038970554808135
  24    -0.00019428876895757
  25    -4.5535419738977e-05
  26    -0.001535349424211
  27    -0.004388273193489
  28     0.010997568815247
  29    -3.7235026194432e-05
  30    -0.00095643494278262
  31    -0.0019511445095454
  32    0.0025524999668997
  33    -0.00037312848551136
  34    0.0011336370990794
  35     0.006742267641238
  36    -0.00044372861655834
  37    6.1446291613167e-05
  38    -5.5580634563767e-05
  39    0.00049898001766124
  40    -0.00024032203990053
  41    0.00025646131649809
  42    0.00013376216816928
  43    -0.019475368416773
  44    -0.019967675798127
  45    0.00016554282978717
  46     0.001211238616937
  47    -0.00071117664707642
  48     0.015488449172259
  49     0.025325861479042
  50    -0.00080826037562635
  51    -0.00040020821931561
  52    -0.00015426985952922
  53     0.016944416249536
  54     0.018466447482349
  55    0.0013416961508167
  56    -0.0096874568325464
  57    0.0015422223684917
  58    0.0072966995673288
  59      -0.2264597472186
  60     -0.20799125778517
  61     -0.13296870278587
  62      0.44050389782001
  63    -0.0013015809609538
  64    -0.086759364922261
  65      0.28806307517897
  66    -0.00069544932694832
  67      0.01001177213825
  68    -5.3244375443639e-06
  69    -4.3919701022196e-05
  70     0.014066449726344
  71     0.010179978394277
  72     0.017239788933391
  73     0.019678248307958
  74    0.0015308942769457
  75    -0.0096264023181936
  76    -0.0015141326341016
 Sym= A
 Ene=               9
 Spin= Alpha
 Occup=    1.00000
   1    7.902764385296e-06
   2     0.015041418918597
   3    -0.011641709512602
   4     0.023115394105949
   5    0.00039646535923354
   6    0.0085771032868868
   7      0.01125919995261
   8    0.0038970565320607
   9    -0.0025329794737175
  10    0.0038974999907898
  11     -0.01099757020812
  12    -0.0015353483333428
  13    -0.0020258748076739
  14    4.553564079299e-05
  15     0.003093532251419
  16     -0.13831137931795
  17      0.01225941253539
  18    -0.090040157581774
  19    -0.00021302788830431
  20     -0.27820149026226
  21    -0.024007030624829
  22    -0.0014966487271646
  23    -0.049010271449904
  24    -0.049220699885973
  25    -0.030206233314981
  26    -2.6135309867955e-05
  27    -0.0057450541251865
  28    0.00032277543972867
  29    0.0072967607742322
  30     -0.22645964751492
  31     -0.20799113883324
  32       0.1329686965099
  33    -0.0013016359818314
  34      0.44050397744429
  35     0.086759361533315
  36    -0.00069548870571384
  37      0.28806313067647
  38    -0.017187790833319
  39    -0.010179978543137
  40    -4.3918878795065e-05
  41    -0.001637224000367
  42    5.3247807433014e-06
  43      0.01723978072646
  44     0.019678242680176
  45    -0.0015308950344813
  46    -0.0015141322745993
  47    -0.0096264033053508
  48     0.016944430253502
  49     0.018466455155623
  50     -0.00134169708227
  51     0.001542221756985
  52    -0.0096874570708357
  53     0.015488454671051
  54     0.025325866496862
  55    0.0008082616563579
  56    -0.00015426946539841
  57    -0.00040020929134154
  58    -3.7239693548816e-05
  59    -0.00095644087257081
  60    -0.0019511545321952
  61    -0.0025525184092252
  62     0.001133631750904
  63    -0.00037310815410168
  64    -0.0067422828611244
  65    6.1442897127622e-05
  66    -0.00044371377019778
  67    -0.00019431188300796
  68    -0.00013376208944609
  69    -0.00024032231915477
  70    0.00017636460488176
  71    -0.00049898003396736
  72    -0.019475354289008
  73    -0.019967674920871
  74    -0.00016554191320382
  75    -0.00071117594440598
  76    0.0012112401162907
 Sym= A
 Ene=              10
 Spin= Alpha
 Occup=    1.00000
   1    -0.00054480885681653
   2     -0.00151248085244
   3    0.0020345484267769
   4    0.0017542001273136
   5    0.0010965750681463
   6    -0.0077854986248679
   7     0.017335470825677
   8    0.0076135186254867
   9    -0.0098240675936746
  10    0.00050361925883702
  11    -0.0045502842155166
  12    -2.6287256541136e-05
  13    -0.00098813231092486
  14    -0.00029784102316426
  15    -0.0066668531464419
  16    -0.068717437628323
  17    -0.035676522359768
  18    -0.029911453993264
  19    0.00015692674853523
  20    -0.094178926944508
  21    -6.6210932193989e-06
  22    -0.00079917864797411
  23    -0.0093673513874865
  24    -0.005706378194907
  25    -0.0028944913742482
  26    0.00047341109636962
  27    -0.0010193729546298
  28    0.00044507266716122
  29    -0.0020908314555434
  30      0.43861542439101
  31      0.52553799121742
  32      0.10433891657675
  33    0.0062303445503038
  34      0.30157710366153
  35     0.071514667866934
  36    0.0041887976117421
  37      0.20856131225193
  38    -0.0071341281703576
  39    -0.0043352514781078
  40    -0.0001738822707605
  41    -0.00065202766931856
  42    -2.4071662469433e-05
  43    -0.0011224971985746
  44     0.015518073996719
  45    -0.0013687156750197
  46    0.00015748267956425
  47    -0.0040384467855548
  48    -0.0019977405640439
  49     0.013458248807464
  50    -0.0011170006581458
  51    -7.9708184826101e-05
  52    -0.0040955920564847
  53    -0.0009046210917164
  54     0.021256388942996
  55    0.00033260858178207
  56    0.00020736991534594
  57    -0.00021632145028609
  58    0.00042325706197916
  59    0.00064953386796765
  60    -0.0035802454772756
  61    -0.00070964654171765
  62    -0.00066448892967321
  63    0.0008517472673596
  64    -0.0038231128333823
  65    -0.00046246041132752
  66     0.001482609893074
  67    -1.232152132047e-05
  68    -0.00012578622528688
  69    4.5938658948223e-05
  70    3.0691224110129e-05
  71    -5.4163931532037e-05
  72    -0.0012455307462376
  73    -0.0046210037683532
  74    0.00031979910786526
  75    3.4764417336443e-05
  76    0.0010406539219546
 Sym= A
 Ene=              11
 Spin= Alpha
 Occup=    1.00000
   1    -0.006667015359176
   2      -0.0687175088362