[Molden Format]
made by pyscf v[2.0.1]
[Atoms] (AU)
C   1   6     0.00000000000000     0.00000000000000     0.00000000000000
C   2   6     2.85207482267819     0.00000000000000     0.00000000000000
F   3   9     3.65415199667903     0.00000000000000     2.45977207315200
H   4   1     3.58561868306314    -1.66499644088808    -0.96128614334650
H   5   1     3.58561868306314     1.66499644088808    -0.96128614334650
H   6   1    -0.73354386038494     1.23580564461298     1.47277581671572
F   7   9    -0.80207717400084     0.84129159700793    -2.31142966595619
H   8   1    -0.73354386038494    -1.89336409366168     0.33385117401718
[GTO]
1 0
 s    8 1.00
                  6665  0.00069158396281299
                  1000  0.0053257961529341
                   228   0.027060721042034
                 64.71    0.10165684614077
                 21.06     0.2745748236174
                 7.495    0.44829431892377
                 2.797    0.28490261071525
                0.5215   0.015194859206082
 s    8 1.00
                  6665  -0.00029326965268655
                  1000  -0.0023180354739745
                   228  -0.011499786038565
                 64.71  -0.046826727009787
                 21.06   -0.12846616875047
                 7.495   -0.30126627246289
                 2.797   -0.25563070233011
                0.5215      1.093793361012
 s    1 1.00
                0.1596                   1
 p    3 1.00
                 9.439   0.056979251590039
                 2.002    0.31320721150073
                0.5456    0.76037674173753
 p    1 1.00
                0.1517                   1
 d    1 1.00
                  0.55                   1

2 0
 s    8 1.00
                  6665  0.00069158396281299
                  1000  0.0053257961529341
                   228   0.027060721042034
                 64.71    0.10165684614077
                 21.06     0.2745748236174
                 7.495    0.44829431892377
                 2.797    0.28490261071525
                0.5215   0.015194859206082
 s    8 1.00
                  6665  -0.00029326965268655
                  1000  -0.0023180354739745
                   228  -0.011499786038565
                 64.71  -0.046826727009787
                 21.06   -0.12846616875047
                 7.495   -0.30126627246289
                 2.797   -0.25563070233011
                0.5215      1.093793361012
 s    1 1.00
                0.1596                   1
 p    3 1.00
                 9.439   0.056979251590039
                 2.002    0.31320721150073
                0.5456    0.76037674173753
 p    1 1.00
                0.1517                   1
 d    1 1.00
                  0.55                   1

3 0
 s    8 1.00
                 14710  0.00072067370873197
                  2207  0.0055504869689163
                 502.8   0.028254207662589
                 142.6    0.10639582836653
                 46.47    0.28668420124307
                  16.7    0.44843796582416
                 6.356    0.26464118141135
                 1.316   0.015326060993048
 s    8 1.00
                 14710  -0.00032119389049893
                  2207  -0.0025461915683188
                 502.8  -0.012643359507821
                 142.6   -0.05195749170489
                 46.47   -0.14344713812646
                  16.7   -0.33243762329603
                 6.356   -0.21865906750347
                 1.316     1.0955904138622
 s    1 1.00
                0.3897                   1
 p    3 1.00
                 22.67   0.064834021493887
                 4.977    0.34053535983101
                 1.347    0.73464640679382
 p    1 1.00
                0.3471                   1
 d    1 1.00
                  1.64                   1

4 0
 s    3 1.00
                 13.01   0.033498726389998
                 1.962    0.23480080117413
                0.4446     0.8136829578829
 s    1 1.00
                 0.122                   1
 p    1 1.00
                 0.727                   1

5 0
 s    3 1.00
                 13.01   0.033498726389998
                 1.962    0.23480080117413
                0.4446     0.8136829578829
 s    1 1.00
                 0.122                   1
 p    1 1.00
                 0.727                   1

6 0
 s    3 1.00
                 13.01   0.033498726389998
                 1.962    0.23480080117413
                0.4446     0.8136829578829
 s    1 1.00
                 0.122                   1
 p    1 1.00
                 0.727                   1

7 0
 s    8 1.00
                 14710  0.00072067370873197
                  2207  0.0055504869689163
                 502.8   0.028254207662589
                 142.6    0.10639582836653
                 46.47    0.28668420124307
                  16.7    0.44843796582416
                 6.356    0.26464118141135
                 1.316   0.015326060993048
 s    8 1.00
                 14710  -0.00032119389049893
                  2207  -0.0025461915683188
                 502.8  -0.012643359507821
                 142.6   -0.05195749170489
                 46.47   -0.14344713812646
                  16.7   -0.33243762329603
                 6.356   -0.21865906750347
                 1.316     1.0955904138622
 s    1 1.00
                0.3897                   1
 p    3 1.00
                 22.67   0.064834021493887
                 4.977    0.34053535983101
                 1.347    0.73464640679382
 p    1 1.00
                0.3471                   1
 d    1 1.00
                  1.64                   1

8 0
 s    3 1.00
                 13.01   0.033498726389998
                 1.962    0.23480080117413
                0.4446     0.8136829578829
 s    1 1.00
                 0.122                   1
 p    1 1.00
                 0.727                   1

[5d]
[7f]
[9g]

[MO]
 Sym= A
 Ene=               0
 Spin= Alpha
 Occup=    1.00000
   1       1.0021052502832
   2    0.0049059931129528
   3    -0.0084719714820013
   4    -0.00033265632806865
   5    0.00021036465132109
   6    -0.00074186045717882
   7    -0.0011717091655554
   8    0.00015409759914994
   9    -0.00044571416735656
  10    9.5573653075431e-05
  11    2.2875804557971e-06
  12    -3.337473788591e-05
  13    -0.00013543800624478
  14    1.9676139552776e-05
  15    -0.00017615519587555
  16    0.00011364793507809
  17    0.0027168843301239
  18    -0.00037934218148437
  19    2.9914780269774e-06
  20    8.1469875810257e-06
  21    -0.0013939792852161
  22    -9.1077455100173e-05
  23    0.00011652528176753
  24    2.3913506721242e-05
  25    -9.945859180445e-05
  26    2.7951217552646e-06
  27    -4.0116804707069e-05
  28    3.9513087565193e-05
  29    -2.6387707519999e-05
  30    -4.285444474785e-05
  31    -4.0429616442415e-05
  32    1.0189679146158e-05
  33    8.138997496949e-07
  34     1.11092565601e-05
  35    -8.2265111262943e-05
  36    -1.3672724741102e-05
  37    -3.0612918580868e-06
  38    -8.5638593983482e-07
  39    8.0524256477304e-06
  40    5.7720344296044e-07
  41    3.1587384098078e-05
  42    1.5710119177158e-06
  43    -8.8491438956585e-05
  44    0.00012530075466236
  45    -6.7257575694916e-05
  46    2.9061725653769e-05
  47    1.0527785421734e-05
  48    -7.4792616606818e-05
  49    0.00030397094551425
  50    -9.9145004964423e-05
  51    -2.0348588857702e-05
  52    1.0402630993415e-05
  53    0.00067598784126275
  54    0.0014079173941416
  55    5.0850257259162e-05
  56    5.2970565724531e-05
  57    0.00018396817743255
  58    0.00016025165122774
  59    0.00067201134770886
  60    3.2248384303935e-05
  61    9.7515788876158e-05
  62    -0.00012099977726419
  63    0.00033324349766788
  64    -0.00016153899332406
  65    0.00026928451246996
  66    -0.00075025719931694
  67    -0.0001545799832605
  68    -0.00010922709616414
  69    0.00011443502956311
  70    -3.6297769026431e-06
  71    3.8966835308077e-05
  72    0.00062802442278853
  73    0.0013904736927088
  74    3.2966843739606e-05
  75    -0.00019732985292304
  76    0.00011876942528057
 Sym= A
 Ene=               1
 Spin= Alpha
 Occup=    1.00000
   1    -0.00017609286250618
   2    0.00011314977686138
   3    0.0027166899429504
   4    0.00038012526558932
   5    5.4001123485451e-06
   6    -7.196264345402e-06
   7     0.001394311856341
   8    -4.5796850631843e-05
   9    -0.00014093104797709
  10    2.2257430499082e-05
  11    -0.00010690575821263
  12    -2.6011800253181e-06
  13    -4.1092536724452e-05
  14    -3.1131576233867e-06
  15       1.0021053484447
  16    0.0049042212079273
  17    -0.0084729418281256
  18    0.00033124932729148
  19    -5.6161014940789e-05
  20    0.00077037315025493
  21    0.0011711413216616
  22    -7.7001589065832e-06
  23    0.00047209901141711
  24    0.00011116278218213
  25    -4.5103430016593e-06
  26    1.5891734550556e-05
  27    -0.00012638110364117
  28    -1.9260412395926e-05
  29    0.00016027079817012
  30    0.00067207092388244
  31    3.2328466659117e-05
  32    -9.755705514964e-05
  33    2.7992690993726e-07
  34    -0.00035468363083543
  35    0.00016159498754832
  36    -3.5434945656356e-06
  37    0.00079695166863655
  38    -0.00019082068430454
  39    -0.00011595495963751
  40    -4.4427056294771e-07
  41    -2.4528935389885e-05
  42    7.4207988258797e-07
  43    0.00062624448152081
  44    0.0013900029615841
  45    -3.2933273468757e-05
  46    -0.00014497735150801
  47    -0.00017915250566969
  48    0.00067409393735743
  49    0.0014074545067078
  50    -5.0814731857311e-05
  51    0.00011287627926699
  52    -0.00015481888624509
  53    -7.5800595774399e-05
  54    0.00030357227744757
  55    9.9131732104924e-05
  56    -1.5501212512059e-05
  57    -1.6678865792263e-05
  58    -2.6379813699791e-05
  59    -4.2822200079695e-05
  60    -4.038798822544e-05
  61    -1.0165456761066e-05
  62    4.5488480451581e-06
  63    -1.0070324282712e-05
  64    8.2249278710275e-05
  65    -1.3886007332357e-05
  66    -1.7205871914416e-06
  67    -4.2402823891643e-06
  68    7.0375524052086e-06
  69    -1.011609209911e-05
  70    2.9642897366631e-05
  71    -4.2349947015391e-06
  72    -8.8923022868089e-05
  73    0.00012516160417829
  74    6.7265404229025e-05
  75    3.0853784107631e-05
  76    3.8163707740181e-08
 Sym= A
 Ene=               2
 Spin= Alpha
 Occup=    1.00000
   1    -0.00017453236813688
   2    0.00022466621803403
   3    0.0030353720277596
   4    -0.00032768870479959
   5    0.00028972216538329
   6    -0.00080081283217901
   7    8.7136949443765e-05
   8    0.00052614926364341
   9    -0.0013079309608177
  10    0.00011608135353038
  11    9.7428756640821e-05
  12    -9.5796338811321e-05
  13    1.5544257710629e-05
  14    -2.3149830932495e-05
  15    2.471113766706e-05
  16    1.5146428564284e-05
  17    -0.00095337823730938
  18    0.00010996425722747
  19    2.2602955941643e-05
  20    -1.2293502830049e-05
  21    0.00057651867094577
  22    -0.00022147876679946
  23    0.00015469945807785
  24    5.3380198457989e-05
  25    -1.1403137397127e-05
  26    -4.8843323905303e-05
  27    -4.2056844976812e-05
  28    1.6259306856198e-05
  29    -2.7913864989013e-05
  30    -4.9752247523755e-05
  31    0.00013444603865554
  32    1.8617444686646e-05
  33    -2.0594464948556e-06
  34    -1.0308843705074e-05
  35    -0.00016334923501384
  36    2.9315119230706e-05
  37    -1.8450183266022e-05
  38    -3.2831227473519e-06
  39    -6.718848767419e-07
  40    -8.7037309037493e-06
  41    1.220556525171e-06
  42    -1.2418672252129e-06
  43    4.8938068646236e-05
  44    -0.00017590694893048
  45    2.9448418793529e-05
  46    1.9182422528793e-06
  47    1.1551919735387e-06
  48    2.1968913183642e-05
  49    2.6577765672719e-05
  50    4.4708691482355e-05
  51    1.3540547762304e-05
  52     1.36145315438e-05
  53    -0.0002522488471221
  54    -0.00014391364525014
  55    8.8972612431764e-06
  56    -5.542372510087e-05
  57    0.00014762758030928
  58       1.0009665270351
  59    0.0008724526401466
  60    -0.005160564796577
  61    0.00064208318689791
  62    -0.00062840975600727
  63    0.0018909597814745
  64    -0.00024340974396427
  65    0.00026252130491661
  66    -0.00060941300039806
  67    -0.00011471986640202
  68    -7.4820907983761e-05
  69    8.3086604651112e-05
  70    8.986139064388e-06
  71    2.8623615352386e-05
  72    -0.00025106531748359
  73    -8.3253117550878e-05
  74    8.3603515779083e-06
  75    -5.408658114653e-05
  76    0.0001464465512244
 Sym= A
 Ene=               3
 Spin= Alpha
 Occup=    1.00000
   1    2.4658884569301e-05
   2    1.4645654615608e-05
   3    -0.00095634424030986
   4    -0.00011202501867677
   5    1.7327989940291e-05
   6    1.9827544806659e-05
   7    -0.00057748875621275
   8    -0.00015613642667219
   9    -0.00022019489407105
  10    7.5615698748565e-05
  11    -1.6335505360491e-05
  12    2.1237984360166e-05
  13    -2.9385256677615e-05
  14    -1.1448437741276e-05
  15    -0.00017465300976911
  16    0.00022182516453854
  17    0.0030340994187926
  18    0.0003262721921437
  19    -1.9729342426729e-06
  20    0.00085151695505208
  21    -8.8863719940455e-05
  22    4.770883030517e-05
  23    0.0014087325017024
  24    0.00014815816567807
  25    9.8305972656625e-05
  26    4.3479573876246e-06
  27    3.3192341600922e-05
  28    -1.1503963162694e-05
  29       1.0009664347842
  30    0.00087912416809972
  31    -0.0051519451112566
  32    -0.00066669291320303
  33    6.6958850367323e-05
  34    -0.0019792577686377
  35    0.00022598339581083
  36    4.580681799639e-05
  37    0.00067109395221269
  38    -0.00014215085571474
  39    -7.9731286653513e-05
  40    -2.8616454633606e-06
  41    -6.455989254331e-06
  42    -1.3766474474646e-06
  43    -0.00025059818429612
  44    -8.1362537992152e-05
  45    -8.2753236788305e-06
  46    -9.0669881903998e-07
  47    -0.00015612863180483
  48    -0.00025386845108709
  49    -0.00014398512645747
  50    -8.7938977892964e-06
  51    -1.4589781929897e-06
  52    -0.00015777099904432
  53    2.2861023160466e-05
  54    2.8483279755213e-05
  55    -4.4516968734096e-05
  56    1.7321766497422e-05
  57    -8.2027721087869e-06
  58    -2.7986441072735e-05
  59    -4.9715588307845e-05
  60    0.0001354024659728
  61    -1.8309935351255e-05
  62    -5.5330036963182e-06
  63    9.3959550424708e-06
  64    0.0001636614492536
  65    2.1101423702147e-05
  66    2.7895228921781e-05
  67    2.0436048783346e-06
  68    -2.3286812759336e-07
  69    8.0971669538319e-06
  70    4.2633061234547e-06
  71    1.4053078869749e-06
  72    4.8978703424046e-05
  73    -0.00017605841918413
  74    -2.9526312942681e-05
  75    2.2459670214881e-06
  76    -4.7626359932121e-07
 Sym= A
 Ene=               4
 Spin= Alpha
 Occup=    1.00000
   1    -5.0749831180005e-05
   2    -0.015911574224896
   3    -0.043647897039846
   4    -0.019335032333258
   5    -0.0093962260333236
   6    -0.0049900248664039
   7    -0.0063513610190715
   8    -0.033612467161213
   9    -0.0039272188596884
  10    0.00074648090301323
  11    -0.00019597261391675
  12    -7.4644315293255e-07
  13    -2.2878874550453e-05
  14    -0.0016648615422227
  15    -0.00099831855672448
  16    -0.0033123363726802
  17    -0.0041682352543484
  18    -9.613360138155e-05
  19    -0.0065562490538825
  20    -0.0038791641795001
  21    -0.012976804876458
  22     0.031239096567853
  23    -0.0059647430904288
  24    0.0080047408463743
  25    -0.012811159889188
  26     0.031635969975359
  27    -0.006351577132652
  28    0.0063874444967575
  29    -0.00096839082276935
  30     0.021811857247988
  31      0.03281874010706
  32     -0.28195502421498
  33      0.59491947117303
  34      0.10269043258657
  35      -0.2002649343948
  36          0.4201222357
  37     0.070779676695377
  38    -0.0031606872161662
  39    0.0044473431572278
  40    -0.010505294794954
  41    0.0018423196646406
  42    -0.0040693944343592
  43     0.060177840734551
  44     0.061336090636318
  45    0.00035456830037889
  46    -0.00088572496441119
  47    0.0021577424603218
  48    -0.035558240223063
  49    -0.036007975066446
  50    0.0010224398176676
  51    -0.0010370670683871
  52    -0.0013054702149834
  53    -0.0045200085467023
  54     0.038423923402389
  55    0.0032709207452144
  56    6.0447603814145e-05
  57    0.00036171021246656
  58    -0.00030161676891766
  59    0.0019375408916779
  60     0.010258864035886
  61    0.0049114722493118
  62    0.00096057656933954
  63    0.0057782590873487
  64    0.0027354134598997
  65     0.002401115423373
  66    0.0078979337678654
  67    0.00014939195403071
  68    -0.00037989037341925
  69    -0.00013845752980308
  70    -0.00028951639755235
  71    -4.1291595202022e-05
  72    0.00089723504131958
  73    -0.015302389748558
  74    -0.0012094273982227
  75    -0.00018995302113178
  76    -0.00068894727462816
 Sym= A
 Ene=               5
 Spin= Alpha
 Occup=    1.00000
   1    0.0012448553327657
   2      0.03242074295608
   3     0.074805679082781
   4     0.038954217414917
   5     0.001085060096578
   6    0.0034610358558154
   7     0.027657425805739
   8    -0.0014836639594443
   9    -0.029011082879221
  10    -0.002854129724503
  11    0.00035358777007672
  12    0.0012575378675729
  13    0.00033180202675958
  14    -0.00069310183242745
  15    0.0021979928240125
  16    0.0014109271255523
  17    -0.011095026965427
  18    -0.0013295353945547
  19    -0.0034040928097861
  20    0.00072220755796708
  21     0.029692668629135
  22     0.012598313717227
  23     0.015831688094209
  24    -0.015902405317531
  25      0.02439505130999
  26     0.016477294112281
  27     0.012280797386996
  28    0.0033537370154951
  29    0.0017176429042636
  30    0.00026265357702115
  31    -0.014442509968092
  32      0.56563802070026
  33      0.30062411148829
  34     -0.18091169707336
  35      0.40144032185137
  36      0.21325250278416
  37     -0.12516120404294
  38    0.0059315920260536
  39    -0.0091845020643959
  40    -0.0052925642142524
  41    -0.0035680099685292
  42    -0.0022027934175629
  43    0.00029829283820659
  44    0.0042121497089422
  45    -0.001889807260854
  46    -0.00063748793841399
  47    -0.00049958571939335
  48    -0.049025254331831
  49    -0.048011612452807
  50    -0.0012333947395847
  51    -8.2673829600424e-05
  52    -0.002269033039834
  53      0.01257267017472
  54    -0.0033118991725466
  55    -0.00086373648274188
  56    -0.00051466309913911
  57    -0.0012445239230807
  58     0.001746958376146
  59    -0.00089483059920888
  60    -0.023247395854918
  61    -0.0065170249421965
  62    0.0042203709012168
  63    -0.010110746327981
  64    -0.0077326380539324
  65    0.0067724345172089
  66    -0.012482355546186
  67    -0.00023382600161229
  68    0.0005550789778421
  69    0.00020197128552226
  70    0.00026057698694312
  71    -0.00027748859790629
  72    0.0034352569118186
  73    -0.018635138196868
  74    0.0011875292169483
  75    -0.00010463580736889
  76    0.0013508476383154
 Sym= A
 Ene=               6
 Spin= Alpha
 Occup=    1.00000
   1    -0.0022022069447087
   2    -0.0023973872633209
   3    0.0093534301306483
   4    -0.00086131309879843
   5    0.00099249674566395
   6    -0.00068493411841313
   7     0.032323146396635
   8    -0.009975356187095
   9       0.0136859918368
  10     0.020245399244463
  11    -0.024574189379587
  12    0.00059755577617386
  13    -0.011843025290292
  14     0.010706676444349
  15    -0.0011965882604469
  16    -0.035146362101541
  17    -0.083187343455687
  18     0.042461289928539
  19    -0.0048231310035045
  20    0.0028941101857456
  21     0.028461082678017
  22    0.0027330420227896
  23    -0.027952908063471
  24    0.0031511324005155
  25    -0.00033513551128272
  26    -0.00061064893932392
  27    -0.00022854793727305
  28    -9.6270761554594e-05
  29    -0.0017580753451809
  30    0.0013858575889693
  31     0.025134633849635
  32    -0.0076166289715362
  33    0.00023661816928292
  34    -0.011922551217597
  35    -0.0082444994325546
  36    -0.00078116767926895
  37    -0.015261885945766
  38    0.00037933991746101
  39    -0.0006834912765701
  40    0.00013476938078752
  41    -0.00026340880878772
  42    -2.4790613837361e-05
  43    -0.0029802120552253
  44     0.014107631396973
  45    0.0014373767691974
  46    -0.00044012042450654
  47     0.001410620814961
  48    -0.013233847538807
  49     0.012609998185264
  50    -0.0016685686980658
  51    0.00092292240063393
  52    -0.001046037898177
  53     0.036461866797882
  54     0.036587819286802
  55    -0.0015302492503994
  56    0.00061657507166614
  57    -0.0017608055594484
  58    -0.0018282538743689
  59    -0.0020498429783107
  60      0.01352458341377
  61      0.62028570569172
  62    -0.065310994711978
  63     -0.23194852823985
  64      0.44015365409578
  65    -0.047928793768108
  66     -0.16134817441682
  67    -0.0070863613966371
  68    0.0091068438841273
  69    0.00041348399640101
  70    0.0035585155493248
  71    -0.0044936134749925
  72     0.014231122238932
  73     0.011085000118934
  74    -0.0019436532735928
  75    0.00064094517448819
  76    -0.00091920889193002
 Sym= A
 Ene=               7
 Spin= Alpha
 Occup=    1.00000
   1    -0.0003155728486216
   2    -0.0023485238834587
   3    -0.0066177568655952
   4    0.00026670428997375
   5    -0.0037354769202539
   6    0.00091067274630137
   7    0.0051334577797273
   8     0.032237266993829
   9     0.013429084327879
  10    -0.015793054999741
  11    -0.008293249136392
  12    -0.027664365841633
  13    -0.014351754046243
  14    -0.0046126296207542
  15    0.00026664189190604
  16    -0.007000293925372
  17    -0.023264165299523
  18    0.0090143419526164
  19    -0.0092936799313002
  20    0.00053164957141724
  21    -0.00059590851601053
  22    -0.034393567048521
  23    -0.00095345035009561
  24    -0.00018120430833471
  25    0.00050602230928507
  26    -0.00023506409654727
  27    -4.0226614343064e-05
  28    0.0015064589546054
  29    0.0001459271647541
  30    0.0016416021927828
  31    0.0040522748832637
  32    -0.0031020167102348
  33    0.0029025373281599
  34    -0.0021377060985842
  35    -0.00070964872941372
  36    0.0052584030510901
  37    -0.0028083761935136
  38    0.00013975552138211
  39    -0.00017919124213505
  40    8.2653998106893e-05
  41    -0.00018380974486402
  42    0.00017483693989819
  43    0.0019504027969499
  44    -0.019101349363489
  45    0.00086006280650957
  46    -0.00031862294286049
  47    0.00022808547940631
  48    -0.001016894723948
  49     0.035843825010146
  50    -0.0029447593457451
  51    -8.7982687382933e-05
  52    -4.6005210554843e-05
  53    -0.044208523295144
  54    -0.046110321029459
  55    -0.0005897723951357
  56    -0.0016057984658204
  57    0.0012052887228595
  58    -0.00045459116714492
  59     0.015811254483202
  60     0.021704703095709
  61      0.13180844780533
  62      0.62948846513004
  63       0.1758524521883
  64     0.093650046279642
  65      0.44419393219727
  66      0.12510528647906
  67    0.0051249020201281
  68    0.0034681968322382
  69    0.0093961189978028
  70    0.0047095587142212
  71    0.0035358613095329
  72     0.055121476269515
  73     0.059053593310494
  74    -8.3320396146873e-06
  75    -0.00043919675271191
  76    -0.0021723822916374
 Sym= A
 Ene=               8
 Spin= Alpha
 Occup=    1.00000
   1    -0.0032716860580425
   2      0.13855399167369
   3    -0.017792808815206
   4    -0.090679907703436
   5      0.09419154803046
   6     -0.26022962534912
   7    -0.026103280265685
   8     0.013065502274986
   9     -0.04285132782036
  10     0.040973691970186
  11     0.026829917775294
  12    -0.028804738117695
  13    0.00035195631938653
  14    -0.010348051296593
  15    2.2656291882457e-05
  16    -0.020230559838815
  17     0.010310214532818
  18     0.020775928858322
  19    -0.0037515738630751
  20    -0.0064748651413528
  21    0.0034995143919732
  22    0.0054476612344712
  23    -0.0063362064182173
  24    -0.0015413075373407
  25    0.0097766865695322
  26     0.002119318939496
  27    0.0027327427618115
  28    -0.0039599885364313
  29    0.00038106252739011
  30    0.0043414379715878
  31    0.0091226374278508
  32    -0.009845135392777
  33    0.00062475084637861
  34    -0.012455421303093
  35    -0.010181676378625
  36    -0.00078300188413699
  37    -0.0075515067351993
  38    0.00020549375860305
  39    -0.00021597466273333
  40    0.00018583236225627
  41    -0.00024923281859148
  42    5.5990049041388e-05
  43    -0.0012105942291357
  44    0.0071702840758156
  45    0.0011405050692878
  46    -0.00060742553571821
  47    -0.00072517381564748
  48    -0.011308563957196
  49    -0.017366829161499
  50    0.00086916965346019
  51    -0.00028949701204087
  52    -0.0012472843735892
  53     -0.01468124805807
  54    -0.015200793351119
  55    -0.0012998556670158
  56     0.001925725226969
  57    -0.0095533589834593
  58    -0.0076381266944863
  59      0.22654971044961
  60      0.21091636489967
  61      0.13582634801599
  62     -0.15182900962038
  63      0.41182199456666
  64     0.089305383546418
  65    -0.099483820593686
  66      0.26960363313755
  67     0.013811936453683
  68    0.0097191325417537
  69    -0.010140700654731
  70    -7.7295440068383e-05
  71    -0.0036407831541129
  72     -0.01607352077121
  73    -0.020633804411171
  74    -0.0015646761986102
  75     0.004990244571949
  76    -0.0085671854209947
 Sym= A
 Ene=               9
 Spin= Alpha
 Occup=    1.00000
   1    -2.0731484602234e-05
   2     0.019824357042384
   3    -0.010586814273078
   4     0.020868593571072
   5    0.0051858478627856
   6    -0.0052801566707804
   7     0.003528429983628
   8    -0.0031565274683811
   9    -0.0079863740107004
  10    0.0027033440764823
  11    -0.010547439925845
  12    0.0016122988385252
  13    -0.0020281547876383
  14    -0.00036374189430766
  15    0.0032377078270175
  16     -0.13768746166892
  17     0.018302987173334
  18    -0.090140699724988
  19    0.00034440202218008
  20     -0.27738040624481
  21    -0.025898546178996
  22    0.0023036014505937
  23     -0.04497184189235
  24    -0.049806191193133
  25    -0.028747330967829
  26    0.00085505569418261
  27    -0.0054890274187978
  28    -0.00052406377963667
  29    0.0076320172469837
  30     -0.22659565818277
  31     -0.21097241317921
  32      0.13597168392744
  33    0.0018040898192418
  34      0.43891992359964
  35     0.089368835486587
  36    0.0012757534801923
  37      0.28740365316766
  38     -0.01702667807487
  39    -0.010384627416711
  40    -0.00010216209916885
  41    -0.0017923180875586
  42    -9.5638676743807e-05
  43     0.016964425086197
  44     0.020779643873269
  45    -0.0015880215428212
  46    -0.0016730460049222
  47    -0.0097272121461854
  48     0.015425577567788
  49     0.015391519583923
  50    -0.0013180494387386
  51    0.0013840467575817
  52    -0.0096133137470852
  53     0.010526362065397
  54     0.017179634016785
  55    0.0008371944393632
  56    0.0007338619734861
  57    -0.0010277767474318
  58    -0.00037830430611606
  59    -0.0043290678552457
  60    -0.0091125118347903
  61    -0.0098543108003794
  62    0.0036796633370866
  63    -0.011882860324343
  64    -0.010203369868892
  65    0.0033592028593302
  66    -0.0067737515577911
  67    -0.00010030625299689
  68    0.00022102899763762
  69    0.00017068645430417
  70    0.00031379927760424
  71    -2.3435417095359e-05
  72    0.0013812992176133
  73     -0.00703176605089
  74    0.0011477462114946
  75    0.00081062237964882
  76    -0.00048634048764628
 Sym= A
 Ene=              10
 Spin= Alpha
 Occup=    1.00000
   1    -0.00021444740255594
   2    -0.00021520261015505
   3     0.001593163950137
   4    0.0025209814425785
   5    0.00026602234459608
   6    -0.0084238957990711
   7     0.011111082852045
   8    -0.0054216786592763
   9    -0.0081503892946913
  10    0.00055196848437392
  11    -0.0043545356989198
  12    5.5134054555989e-05
  13    -0.00095380598383413
  14    0.00012306222208107
  15    -0.0067247998605062
  16    -0.068469913250999
  17    -0.028708252115838
  18    -0.030278983842504
  19    0.00066780569141394
  20    -0.094233968638399
  21    -0.0020859979155783
  22    0.00064175675936164
  23    -0.0077041973857951
  24    -0.0064506200692628
  25    -0.0021594833413847
  26    -0.0012242291303873
  27    -0.00059238765573691
  28    -0.00056942206763283
  29    -0.0017607488312562
  30      0.43791442283121
  31      0.52298113699906
  32      0.11469776929723
  33    -0.028014075361061
  34      0.29951155247831
  35     0.078708032936539
  36    -0.020146514504242
  37      0.20746861106164
  38    -0.0070157972832045
  39    -0.004609894930672
  40    0.00044417740972497
  41    -0.00076163661734508
  42    0.00017994947377179
  43    -0.0042413120227348
  44     0.012568792283178
  45    -0.0012735751814039
  46    8.1913573060156e-05
  47    -0.0042010765645924
  48    0.00021753625071337
  49     0.015074268223771
  50    -0.0013672442925315
  51    -0.00018157127804657
  52    -0.0039724484605534
  53    -0.0013604512171033
  54      0.01470478546972
  55    0.00012087877444956
  56    2.0534045519987e-05
  57    -0.00034110521658197
  58    -0.0003918672120814
  59    -0.0019205340910277
  60    -0.0029404963869879
  61    -0.0036548746091355
  62    0.00077949513675855
  63    -0.0016008338478813
  64     -0.00344107541028
  65    0.0011803641885687
  66    -0.00026827492935756
  67    -9.0547806479311e-06
  68    0.00017815296158508
  69    -6.0339192646752e-05
  70    0.00016883778952304
  71    -7.807974432566e-05
  72    -0.0013791657888353
  73    -0.0018924101584904
  74    -0.00031220139269063
  75    4.7700808345727e-05
  76    -0.00023132594475869
 Sym= A
 Ene=              11
 Spin= Alpha
 Occup=    1.00000
   1    -0.0067471319267579
   2    -0.069076083368329
   3    -0.028956402598156
   4     0.030585077791761