[Molden Format]
made by pyscf v[2.0.1]
[Atoms] (AU)
C   1   6     0.00000000000000     0.00000000000000     0.00000000000000
C   2   6     2.85207482267819     0.00000000000000     0.00000000000000
F   3   9     3.65415199667903     0.00000000000000     2.45977207315200
H   4   1     3.58561868306314    -1.66499644088808    -0.96128614334650
H   5   1     3.58561868306314     1.66499644088808    -0.96128614334650
H   6   1    -0.73354386038494    -1.89336409366168     0.33385117401718
F   7   9    -0.80207717400084     1.58111101127508     1.88429472797734
H   8   1    -0.73354386038494     0.65755844904870    -1.80662699073290
[GTO]
1 0
 s    8 1.00
                  6665  0.00069158396281299
                  1000  0.0053257961529341
                   228   0.027060721042034
                 64.71    0.10165684614077
                 21.06     0.2745748236174
                 7.495    0.44829431892377
                 2.797    0.28490261071525
                0.5215   0.015194859206082
 s    8 1.00
                  6665  -0.00029326965268655
                  1000  -0.0023180354739745
                   228  -0.011499786038565
                 64.71  -0.046826727009787
                 21.06   -0.12846616875047
                 7.495   -0.30126627246289
                 2.797   -0.25563070233011
                0.5215      1.093793361012
 s    1 1.00
                0.1596                   1
 p    3 1.00
                 9.439   0.056979251590039
                 2.002    0.31320721150073
                0.5456    0.76037674173753
 p    1 1.00
                0.1517                   1
 d    1 1.00
                  0.55                   1

2 0
 s    8 1.00
                  6665  0.00069158396281299
                  1000  0.0053257961529341
                   228   0.027060721042034
                 64.71    0.10165684614077
                 21.06     0.2745748236174
                 7.495    0.44829431892377
                 2.797    0.28490261071525
                0.5215   0.015194859206082
 s    8 1.00
                  6665  -0.00029326965268655
                  1000  -0.0023180354739745
                   228  -0.011499786038565
                 64.71  -0.046826727009787
                 21.06   -0.12846616875047
                 7.495   -0.30126627246289
                 2.797   -0.25563070233011
                0.5215      1.093793361012
 s    1 1.00
                0.1596                   1
 p    3 1.00
                 9.439   0.056979251590039
                 2.002    0.31320721150073
                0.5456    0.76037674173753
 p    1 1.00
                0.1517                   1
 d    1 1.00
                  0.55                   1

3 0
 s    8 1.00
                 14710  0.00072067370873197
                  2207  0.0055504869689163
                 502.8   0.028254207662589
                 142.6    0.10639582836653
                 46.47    0.28668420124307
                  16.7    0.44843796582416
                 6.356    0.26464118141135
                 1.316   0.015326060993048
 s    8 1.00
                 14710  -0.00032119389049893
                  2207  -0.0025461915683188
                 502.8  -0.012643359507821
                 142.6   -0.05195749170489
                 46.47   -0.14344713812646
                  16.7   -0.33243762329603
                 6.356   -0.21865906750347
                 1.316     1.0955904138622
 s    1 1.00
                0.3897                   1
 p    3 1.00
                 22.67   0.064834021493887
                 4.977    0.34053535983101
                 1.347    0.73464640679382
 p    1 1.00
                0.3471                   1
 d    1 1.00
                  1.64                   1

4 0
 s    3 1.00
                 13.01   0.033498726389998
                 1.962    0.23480080117413
                0.4446     0.8136829578829
 s    1 1.00
                 0.122                   1
 p    1 1.00
                 0.727                   1

5 0
 s    3 1.00
                 13.01   0.033498726389998
                 1.962    0.23480080117413
                0.4446     0.8136829578829
 s    1 1.00
                 0.122                   1
 p    1 1.00
                 0.727                   1

6 0
 s    3 1.00
                 13.01   0.033498726389998
                 1.962    0.23480080117413
                0.4446     0.8136829578829
 s    1 1.00
                 0.122                   1
 p    1 1.00
                 0.727                   1

7 0
 s    8 1.00
                 14710  0.00072067370873197
                  2207  0.0055504869689163
                 502.8   0.028254207662589
                 142.6    0.10639582836653
                 46.47    0.28668420124307
                  16.7    0.44843796582416
                 6.356    0.26464118141135
                 1.316   0.015326060993048
 s    8 1.00
                 14710  -0.00032119389049893
                  2207  -0.0025461915683188
                 502.8  -0.012643359507821
                 142.6   -0.05195749170489
                 46.47   -0.14344713812646
                  16.7   -0.33243762329603
                 6.356   -0.21865906750347
                 1.316     1.0955904138622
 s    1 1.00
                0.3897                   1
 p    3 1.00
                 22.67   0.064834021493887
                 4.977    0.34053535983101
                 1.347    0.73464640679382
 p    1 1.00
                0.3471                   1
 d    1 1.00
                  1.64                   1

8 0
 s    3 1.00
                 13.01   0.033498726389998
                 1.962    0.23480080117413
                0.4446     0.8136829578829
 s    1 1.00
                 0.122                   1
 p    1 1.00
                 0.727                   1

[5d]
[7f]
[9g]

[MO]
 Sym= A
 Ene=               0
 Spin= Alpha
 Occup=    1.00000
   1    -0.0001925293731421
   2    7.3348504184502e-05
   3    0.0028324339977885
   4    0.00039166865870557
   5    -1.1308523630625e-05
   6    -1.5215705745032e-05
   7    0.0013559918928573
   8    5.1342634637276e-05
   9    5.2095590037624e-05
  10    2.923026412177e-05
  11    -0.00011881553078964
  12    2.7101110214507e-06
  13    -5.0421924706528e-05
  14    -1.7936648944904e-06
  15       1.0021082951542
  16    0.0049080243403301
  17    -0.0084662026548103
  18    0.00033808853990591
  19    -6.631126569718e-05
  20    0.00067724589972313
  21    0.0011582978214789
  22    -4.8186448160006e-05
  23    0.00037313924682498
  24    9.6628856967724e-05
  25    -9.3430039830578e-06
  26    2.3250581622338e-05
  27    -0.00013232638519472
  28    -1.3768089504504e-05
  29    0.0001445805895184
  30    0.00063977697468923
  31    0.00012664279043057
  32    -0.00010197771305896
  33    -2.6244464807143e-06
  34    -0.00035587932442076
  35    0.00015901907530997
  36    5.3756479014304e-06
  37    0.00075932567982282
  38    -0.00018318712131107
  39    -0.00011101912697722
  40    2.9009257877467e-08
  41    -2.4498900506337e-05
  42    4.7056243118581e-07
  43    0.00058709146247299
  44    0.0013691489093261
  45    -2.6872914281761e-05
  46    -0.0001658748563772
  47    -0.00018032868000182
  48    0.00065735010701356
  49    0.0014152558374912
  50    -4.3381383906386e-05
  51    0.00013235657623667
  52    -0.00014852680520236
  53    -9.0770249214721e-05
  54    0.00016329739163269
  55    7.1269293196474e-05
  56    2.7724581249103e-05
  57    -1.5181670702939e-05
  58    -2.1986947118228e-05
  59    -2.6914124626434e-05
  60    -7.1213562002132e-05
  61    8.8318873384952e-06
  62    -3.053236457051e-06
  63    -9.356816354539e-06
  64    0.00012899452563459
  65    3.1286422836541e-05
  66    5.6321339456398e-05
  67    -1.7690582876043e-05
  68    -9.4867458951717e-06
  69    4.5297114300678e-07
  70    3.5636731378063e-05
  71    -1.0453203636088e-05
  72    -6.0748085618016e-05
  73    0.00013220776489728
  74    6.1907007979805e-05
  75    -3.4111636831616e-05
  76    5.0444180808068e-05
 Sym= A
 Ene=               1
 Spin= Alpha
 Occup=    1.00000
   1       1.0021081952694
   2    0.0049099832118816
   3    -0.0084650768709435
   4    -0.00033951452964538
   5    0.00048580829480964
   6    0.00047465620461298
   7    -0.0011587998438937
   8    0.0002766169560057
   9    0.00025430434792591
  10    0.00010396955987347
  11    1.6063325034104e-05
  12    1.3105003032173e-05
  13    -0.0001281690772776
  14    -4.4653923626752e-06
  15    -0.00019256558201496
  16    7.3134077978166e-05
  17    0.0028322029800128
  18    -0.00039132496873621
  19    1.1212990231564e-07
  20    -1.9031370807433e-05
  21    -0.0013557900832423
  22    -5.3479443791085e-06
  23    7.2907339959974e-05
  24    3.1461113809618e-05
  25    9.2234278380583e-05
  26    -4.3845279706781e-07
  27    -4.9095691114297e-05
  28    7.5050483927417e-05
  29    -2.1986448450455e-05
  30    -2.6896013900516e-05
  31    -7.1150289960101e-05
  32    -8.8617633951379e-06
  33    -3.6913553951907e-06
  34    -9.2107369063454e-06
  35    -0.00012907162648944
  36    1.2143071455316e-05
  37    6.3200367369028e-05
  38    -1.9090255008304e-05
  39    1.3979474256395e-05
  40    2.3624747230998e-06
  41    3.4824488541947e-05
  42    -1.9139052798941e-06
  43    -6.162662768163e-05
  44    0.00013188699360593
  45    -6.1852167499454e-05
  46    5.8533051835417e-05
  47    1.6684666539448e-05
  48    -8.9838755490948e-05
  49    0.00016369705612804
  50    -7.1294950046026e-05
  51    -3.1038179285969e-05
  52    6.2216195662947e-06
  53    0.00065884285166258
  54     0.001415640463803
  55     4.34017880719e-05
  56    -0.00019671145943577
  57    -2.8779215365463e-05
  58    0.00014456633347983
  59    0.00063972550292667
  60    0.00012652747714099
  61    0.00010192774292868
  62    -0.00022663929137794
  63    -0.00027419566635794
  64    -0.0001589794955016
  65    0.00048404415290032
  66    0.00058529483569538
  67    -6.0838954380409e-05
  68    8.4749255910767e-05
  69    -0.00016828103217945
  70    4.6112261006741e-05
  71    7.1731782971242e-05
  72    0.00058955398163381
  73    0.0013698158034515
  74    2.6940613882833e-05
  75    1.1043721239604e-05
  76    -0.00024456800181013
 Sym= A
 Ene=               2
 Spin= Alpha
 Occup=    1.00000
   1    1.0769576668909e-05
   2    -5.4228872462025e-06
   3    -0.00085461578659146
   4    -0.00012429691467572
   5    1.491367293374e-05
   6    -1.0899460836833e-05
   7    -0.00033971313202598
   8    -0.00010343944710975
   9    -0.00020268688651078
  10    6.4486807935337e-05
  11    -1.8691668893954e-05
  12    1.7633049520741e-05
  13    -9.6090706662647e-06
  14    -1.3781843647672e-05
  15    -0.00016890821709611
  16    0.00023053093787199
  17    0.0028456252706621
  18    0.00034153563235867
  19    -2.6858444264916e-06
  20    0.00085355848491722
  21    2.680596656007e-05
  22    5.9873216650077e-05
  23     0.001382651240666
  24    0.00014845384995481
  25    9.7373534421329e-05
  26    -4.1692592083402e-06
  27    2.2318004305004e-05
  28    -1.1208559661432e-05
  29        1.000961907232
  30    0.00087272617755269
  31    -0.0051235591328475
  32    -0.0006306459516791
  33    -4.5133206059711e-06
  34    -0.0019860161633053
  35    0.00023004645283396
  36    8.9224226511722e-06
  37    0.00068318435051485
  38    -0.00014429043126126
  39    -8.3049096399831e-05
  40    -5.5803162644448e-07
  41    -7.9197188736891e-06
  42    -1.4823893128843e-06
  43    -0.00024657217202423
  44    -0.000105180662159
  45    -7.1493185616372e-06
  46    -3.9989720840649e-06
  47    -0.00015124702030961
  48    -0.00025886163228727
  49    -0.0001791159228493
  50    -5.9041955975844e-07
  51    2.7412645008908e-06
  52    -0.00015584523798597
  53    6.980286473169e-05
  54    -0.00013867810903379
  55    -4.374868514015e-05
  56    1.216970314756e-05
  57    -1.6889217583639e-06
  58    -1.3473559408938e-06
  59    -7.9195067291064e-06
  60    5.1243721436981e-05
  61    2.0044007840254e-07
  62    2.7776427048306e-05
  63    4.7332421832111e-06
  64    -7.37441372608e-05
  65    -4.1412987065375e-05
  66    -4.1221187689437e-06
  67    1.1957859866206e-05
  68    2.6758578002198e-06
  69    -5.3592191919908e-06
  70    -1.1889639201003e-05
  71    8.0318223326045e-06
  72    2.3787400632676e-05
  73    0.00018614236404566
  74    4.2693099625566e-05
  75    1.771693360501e-05
  76    2.7527095860935e-05
 Sym= A
 Ene=               3
 Spin= Alpha
 Occup=    1.00000
   1    -0.00016899897560229
   2    0.00023130859978985
   3     0.002845330113619
   4    -0.00034229305032772
   5    0.00054889073472834
   6    0.00065005450197916
   7    -2.9217346574139e-05
   8    0.00084281103323245
   9    0.0010978858490834
  10    4.4389040238506e-05
  11    -6.8530655470707e-05
  12    0.0001376707024391
  13    -3.6474949849768e-05
  14    -7.2077378910262e-05
  15    1.0785863614595e-05
  16    -4.1940596459335e-06
  17    -0.0008505281696457
  18    0.00012179642433146
  19    -1.8755009350137e-05
  20    1.3226862526076e-06
  21    0.00033721669312119
  22    -5.2257603363721e-05
  23    -0.00022285198540205
  24    4.2994160553408e-05
  25    2.3217464915328e-05
  26    4.7114910056124e-05
  27    -2.1885945104321e-05
  28    1.5153625167458e-06
  29    -1.3211954853306e-06
  30    -7.6373075937073e-06
  31    5.1758093274006e-05
  32    -5.9717810933796e-07
  33    -1.7949342179367e-05
  34    2.130711170601e-05
  35    7.3877524671484e-05
  36    2.9332542319167e-05
  37    -3.0071884566314e-05
  38    4.2749700723378e-06
  39    -7.1682087557813e-06
  40    5.2707657377277e-06
  41    -1.6379049873836e-05
  42    4.4818466372216e-06
  43    2.315196478123e-05
  44    0.00018465293423089
  45    -4.2829312618636e-05
  46    4.0725262609227e-06
  47    3.249946210882e-05
  48    6.9540765112675e-05
  49    -0.0001390865816987
  50    4.3711172488021e-05
  51    -1.0338319680821e-05
  52    6.5865077620252e-06
  53    -0.00025879986937802
  54    -0.00018009118941955
  55    7.4384702492055e-07
  56    -0.00010220010926026
  57    -0.00011780370465315
  58       1.0009619354461
  59    0.00087857433729442
  60    -0.0051172314102869
  61    0.00059499521681791
  62    -0.0012794921814856
  63    -0.0015272748655197
  64    -0.00025513369233686
  65    0.00042791654926997
  66    0.00052711459629126
  67    -5.2373323997748e-05
  68    6.5096069037993e-05
  69    -0.00012673284328058
  70    4.478268939063e-05
  71    5.2637596017718e-05
  72    -0.00024610263966077
  73    -0.0001056311258702
  74    7.3120989799862e-06
  75    -9.4328174487881e-05
  76    -0.00011837716601736
 Sym= A
 Ene=               4
 Spin= Alpha
 Occup=    1.00000
   1    -0.00049609244451647
   2    -0.016338370722881
   3     -0.04563580750424
   4    -0.028296033250679
   5    -0.0034648018840915
   6    -0.0056423249146052
   7    -0.039501682542279
   8    -0.019505236924227
   9    0.0081332394987219
  10    0.0010856571627191
  11    -0.00068735345850678
  12    6.4169967099501e-05
  13    -0.00038339310385122
  14    -0.0022905994337761
  15    -0.0013443239016928
  16    -6.5729603903749e-05
  17     0.019417802071516
  18    -0.0011327108037926
  19    -0.0046475814258389
  20    0.00094384536852883
  21    -0.030464655660333
  22     0.026667439612878
  23    -0.0092438455947901
  24     0.010475534111191
  25    -0.016715799151855
  26     0.030109734554784
  27    -0.0077056763843503
  28    0.0058537795085017
  29    -0.00056909134829506
  30    0.0065516826674219
  31     0.014920438608242
  32     -0.36662388282562
  33      0.54581291730008
  34      0.11620843604733
  35     -0.25871401858172
  36      0.38494337494926
  37     0.079503490248886
  38    -0.0034700016510106
  39    0.0062866211826952
  40    -0.0099742218640328
  41    0.0023392871118949
  42    -0.0032718286366462
  43     0.059555057372472
  44     0.062110756251871
  45    0.0006669419523363
  46    -0.00099952857648244
  47    0.0020968020475043
  48    -0.028678034987124
  49    -0.030198937986428
  50    0.0014115695330944
  51    -0.00094108831330128
  52    -0.000337163251472
  53    -0.0030292253220756
  54    -0.014135295739319
  55    -0.00054032069151385
  56    -0.00050977221752189
  57    -0.0012862549729835
  58    -0.0017660376212845
  59    -0.0064069572153631
  60    0.0041508108990032
  61    -0.0092259416974552
  62    0.0018037090290194
  63    -0.0035284572650992
  64    0.0029242508631122
  65    0.0034769087550553
  66    -0.0017438949491139
  67    -0.00043875851460333
  68    0.00098615318113041
  69    -0.00035367986356435
  70    0.00097647835451693
  71    -4.1942239300626e-05
  72    0.0086336444451124
  73     0.013333541252834
  74    -0.0016416218303705
  75    -0.00011658271719684
  76    0.00030354618290191
 Sym= A
 Ene=               5
 Spin= Alpha
 Occup=    1.00000
   1      0.00116456663868
   2     0.024072908518236
   3     0.063433438517431
   4     0.040773769953342
   5    -0.0072646702073275
   6    0.0053598688452007
   7     0.029150236303783
   8    -0.011173552464664
   9    -0.028401646481982
  10    -0.0023775752388748
  11    0.00059306453645767
  12    0.0013721585405378
  13    0.00053660586372906
  14    -0.00042189209675574
  15    0.0014370479086253
  16    0.00091094423054071
  17    -0.0071055442233098
  18    -0.00089740361500759
  19    -0.0033259739650421
  20    0.00062766358826473
  21     0.025240711891928
  22     0.018944705752513
  23     0.013293970250777
  24      -0.0147864092525
  25     0.023131724641869
  26     0.020978895271506
  27     0.011841192953841
  28    0.0049306775814072
  29    0.0012344696010021
  30    -0.0035717250673904
  31    -0.015825332103231
  32      0.51789052179002
  33      0.38428249516306
  34     -0.16775571576356
  35      0.36640219098812
  36      0.27176422069701
  37     -0.11548626935139
  38    0.0054433908395919
  39    -0.008732523128657
  40    -0.0068953617977817
  41    -0.0028105319486543
  42    -0.0027220876472727
  43    0.0079985130844531
  44     0.012317968120171
  45    -0.0018169289141846
  46    -0.00059391207682643
  47    -4.8233124492612e-05
  48    -0.053571695000279
  49    -0.051486276491027
  50    -0.0012130992040322
  51    -0.00047157866934827
  52    -0.0020990559621947
  53    0.0047765571286698
  54    -0.015259969911285
  55    0.0012357179928243
  56    6.5332469321423e-05
  57    0.0013892417605787
  58    -0.00055482772447644
  59    0.0018748594055297
  60      0.01276598757072
  61    0.0031566407816804
  62    -0.0049414683211372
  63    0.0010231190623896
  64    -0.001900827652572
  65    -0.0046660382618876
  66    -0.0021500378140761
  67    4.4155221669568e-05
  68    -0.00091048214432362
  69    0.00045289402825046
  70    -0.00037918923474507
  71    3.2225479373314e-05
  72    -0.016109206471394
  73    -0.027667876838036
  74    0.0016655807780017
  75    0.0012648713097495
  76    -0.00088470994047982
 Sym= A
 Ene=               6
 Spin= Alpha
 Occup=    1.00000
   1    -0.0016227976500676
   2    -0.00031593273393003
   3     0.014983106311697
   4    -0.00026753975025596
   5    0.0021093500388949
   6    0.0029854346265167
   7     0.036325573857669
   8    -0.0056746391705987
   9    -0.015140692438586
  10    0.0072178725127703
  11     0.022626751887935
  12     0.009549817798762
  13    -0.020198868108306
  14     0.016541618645991
  15    -0.0012262554565016
  16    -0.028077589642206
  17    -0.076859535152936
  18      0.04928645189563
  19    -0.0091633956357152
  20    -0.0026108124470919
  21     0.043941945315756
  22     0.017321444493539
  23     0.022925766750146
  24    0.00016422639736372
  25    0.00090428305133641
  26    0.0021669944292142
  27    -0.0020640627487562
  28    -0.00011562747061004
  29    -0.00029330434316631
  30    -0.0045474678166931
  31    -0.0096213389974902
  32    0.0068940147421487
  33    -0.0055387972134094
  34    0.0016184690280479
  35    -0.0030116472343761
  36    -0.0035954090709641
  37    0.0046463634562029
  38    -0.00083362976283015
  39    -0.00092456219256873
  40    0.00028859126626569
  41    0.00042068172630245
  42    -0.00083899346250773
  43     0.019471810001416
  44     0.031157107038595
  45    0.0021900269716042
  46    0.0015434861075869
  47    -2.6762599395861e-05
  48    -0.0057302380771686
  49    0.0071147348541882
  50    0.0013483352184748
  51    -0.00096721908451633
  52    -0.0015660898454022
  53      0.03344526917347
  54     0.031760984188116
  55    -0.0018008477337746
  56    0.0010266215805526
  57    0.0014722302500288
  58    -0.0012436305640443
  59    -0.0061132268534526
  60    0.0061588168948137
  61      0.62955161701346
  62       0.2026586546236
  63     0.081879025535884
  64      0.44502022887586
  65       0.1411426254503
  66     0.054663360159124
  67    -0.0021337945571767
  68    -0.0088656414156535
  69    -0.0038554000974379
  70    0.0059425818420442
  71    -0.0061450053479662
  72     0.018290539756034
  73     0.015887643667096
  74    -0.0019803059695905
  75    0.00070781071492807
  76    0.0007944199046254
 Sym= A
 Ene=               7
 Spin= Alpha
 Occup=    1.00000
   1    0.00047656019513865
   2    -0.00084627248593001
   3    -0.014392161057457
   4    -0.0012688148301282
   5    -0.0025807776947584
   6    -0.00070189102348084
   7    -0.016042700081165
   8     0.027311084870626
   9    -0.019985273294243
  10    -0.032460570881863
  11    0.0012634153785129
  12    0.0046056203332682
  13    -0.015429993503889
  14    -0.008832719932475
  15    -9.5416672907206e-05
  16    0.0039187328917105
  17     0.012838572346977
  18    -0.0072797149633777
  19    -0.0031151816159289
  20    0.0058594707934912
  21    -0.022506961931298
  22    -0.013733296899504
  23     0.018308515816299
  24    -0.00052573483242503
  25    -0.0015321945632353
  26    0.00024603894740674
  27    -0.00026691613459585
  28     0.001361254876896
  29    0.0018197226042544
  30    0.0049113205618982
  31    -0.0092017720192872
  32    -0.0068894400656273
  33    0.0012991785266894
  34    0.0023065698434993
  35    0.0016834429658418
  36    0.0024129651489248
  37    0.0011639152670683
  38    0.00049086573609111
  39    0.00034907076132697
  40    -4.8242933458937e-05
  41    -0.00064049312989628
  42    0.00032293420164335
  43    -0.00048338574077181
  44    0.00043996650005035
  45    -0.00073971871825163
  46    0.0004318600174257
  47    -0.00019292367023167
  48    0.00042699017990074
  49     0.019061234529216
  50    6.8971870507557e-05
  51    -5.8626863930922e-06
  52    0.00069380890508006
  53     0.046635388059062
  54     0.048909906821191
  55    0.0006192573628028
  56    -0.00017027451393568
  57    0.0015686919356959
  58    -6.0572700115858e-05
  59    -5.5418178095608e-05
  60    -0.0012824892870658
  61     -0.10008875715484
  62      0.48790510608927
  63     -0.44454143008626
  64    -0.070186013264384
  65      0.34474042815044
  66     -0.31287595302509
  67     0.010830221777483
  68    -0.0012856356002046
  69    -0.0019779438657595
  70    0.0050294790382344
  71    0.0043432670112479
  72    -0.053739221097436
  73    -0.059684683793286
  74    -6.3395412315444e-05
  75    -0.0021315970262295
  76    -0.00053570445389937
 Sym= A
 Ene=               8
 Spin= Alpha
 Occup=    1.00000
   1    0.0025179278579205
   2     -0.14203844629792
   3      0.01327226958371
   4      0.09145410029698
   5     -0.18116883652893
   6     -0.21273572708221
   7     0.028779602785729
   8    -0.032890364893771
   9    -0.038862822763101
  10    -0.016206465496555
  11     0.021750477950679
  12    -0.045101672773241
  13     0.013478442454504
  14     0.019364503089032
  15    -0.00093585111270949
  16     0.010007282511479
  17    -0.0079844902065493
  18    -0.026511757281393
  19    0.0044112894012938
  20    -0.0027000990686096
  21    -0.0078594482388008
  22    0.0015461173432551
  23    0.00080354127424931
  24    0.0037742681631008
  25    0.0084458737454352
  26    0.0012503434246478
  27    -0.0028016417556783
  28    0.0069005529467496
  29    0.0001512284400394
  30    0.0020509033920455
  31    0.0026349869207166
  32    -0.0036669996669926
  33    -0.00034509355133568
  34    -0.0071094781658594
  35    -0.0012563285674587
  36    0.00023767402685559
  37    -0.004026054402952
  38    -9.5171330137656e-05
  39    0.00037627939925746
  40    4.720777007103e-06
  41    -0.00019638682387395
  42    0.00025800395278644
  43    -0.019912283618565
  44    -0.016792394691594
  45    -6.991333442149e-05
  46    7.0748162090433e-05
  47    0.00078859204144901
  48    0.0066493875657077
  49    0.0024965466143437
  50    -0.0015473540268758
  51    -0.00080145056731615
  52    0.0003017137157005
  53     0.016536236549716
  54     0.020929301562765
  55    0.0014753419660436
  56    -0.0073681231356339
  57    -0.0063742679769877
  58    0.0072957667578707
  59     -0.22449611476679
  60     -0.20382577303639
  61     -0.13481112799068
  62       0.2802026795421
  63      0.33761373503008
  64    -0.088601425941207
  65      0.18247228690882
  66       0.2203893750564
  67     -0.00624066700984
  68    0.0078960031610442
  69    -0.015572694910082
  70    0.0047359193270021
  71    0.0064861526929274
  72     0.013680115741087
  73     0.018941951040507
  74    0.0015156566094455
  75    -0.0050134130244301
  76    -0.0085770380738233
 Sym= A
 Ene=               9
 Spin= Alpha
 Occup=    1.00000
   1    -0.0009914873070246
   2     0.010616675164648
   3    -0.0076104194829993
   4     0.025907549415626
   5    -0.004259121622648
   6    -0.00068834933963518
   7    0.0076667552418917
   8    -0.00037217935892454
   9    0.0011092997549589
  10    0.0035662821243355
  11    -0.010877835255073
  12    0.0015739018410494
  13    -0.0029301621503242
  14    -0.00016546615686512
  15    0.0024612255569563
  16     -0.14128619134305
  17     0.013654420992598
  18    -0.090757521727945
  19    0.0022111346196973
  20     -0.28012321625937
  21     -0.02845853498199
  22    0.0003180742492901
  23    -0.051207723314903
  24    -0.049470218240874
  25     -0.02905259114208
  26    0.00064445186106057
  27    -0.0057378942554592
  28    0.00081136973863329
  29    0.0072857590737286
  30     -0.22455271417662
  31     -0.20382605811285
  32      0.13507655169725
  33    0.0024274408752659
  34      0.43863505363076
  35     0.088705356826506
  36    0.0019075308300318
  37      0.28607324970904
  38    -0.017333176975109
  39    -0.010230268933653
  40    -0.00028954188661962
  41    -0.0016842621980351
  42    -0.00010904915798761
  43     0.014438713592543
  44     0.019159131166674
  45    -0.0015257974530095
  46    -0.0015953173262724
  47    -0.0097704579097721
  48     0.017414941610566
  49     0.021038987927087
  50    -0.0014936974739054
  51     0.001453477687231
  52    -0.0095883803896167
  53    0.0062306544598744
  54    0.0022705976058588
  55    0.0015108120295532
  56    0.00081452895717204
  57    -0.00031963952560485
  58    0.00014610338280668
  59    0.0020275895598438
  60    0.0026142496593597
  61    0.0036734815375102
  62    -0.0043108006921572
  63    -0.0055787230362096
  64    0.0013080624458336
  65    -0.0028381716352079
  66    -0.0027878763040672
  67    6.322095734343e-05
  68    -0.00045265090586779
  69    -0.00017560569421144
  70    -0.00011545586684021
  71    -3.5324895071265e-05
  72    -0.018055272634377
  73    -0.016139063594168
  74    0.00012961144430729
  75    0.00040635313997701
  76    0.00077113731778297
 Sym= A
 Ene=              10
 Spin= Alpha
 Occup=    1.00000
   1    -0.001365447926881
   2    -0.0027281356208788
   3    0.0091746907745193
   4    0.0019868673733324
   5    0.00021336481937471
   6    -0.0068982093024121
   7     0.010624850537942
   8    0.00048073903194387
   9    8.0453378322913e-05
  10    0.00083076108204023
  11    -0.0050843836614766
  12    0.00064529223068931
  13    -0.0013364650464813
  14    -0.00040160676491028
  15    -0.0071670436252564
  16    -0.069701890133566
  17    -0.031788292565218
  18    -0.029915082261351
  19    0.00025119684171747
  20     -0.09443916234744
  21    -0.0039214577309363
  22    0.0001101683982779
  23    -0.011711631933054
  24    -0.0057136782953403
  25    -0.0025305756640448
  26    0.00029170156094289
  27    -0.00084818696284264
  28    6.9952445525619e-05
  29    -0.0018075192869569
  30      0.44008739606703
  31       0.5272445014535
  32      0.10609889555233
  33    -0.0013477603497657
  34       0.2995637429994
  35     0.073673417534874
  36    -0.0015488090644374
  37      0.20612697421099
  38    -0.0071879841688718
  39    -0.0042855219011221
  40    -0.00014569244007512
  41    -0.00070139517283484
  42    3.2267545724398e-05
  43    -0.0021004318535859
  44     0.015387481980588
  45    -0.0013027933986926
  46    8.2744589615731e-05
  47    -0.0039958414795977
  48    -0.0016628943154891
  49     0.015276017212987
  50    -0.001241353321456
  51    -0.00018061216526784
  52    -0.0038875060162306
  53    -0.001019016089122
  54    0.0017870990729339
  55    -0.0001861780671705
  56    6.1974866697508e-05
  57    -0.00043477506685254
  58    -5.8185587728717e-06
  59    -1.7555877701345e-05
  60    7.3701166926139e-05
  61    -0.0019839714269718
  62    -0.0008909260135417
  63    -0.0032299772994059
  64    -0.0010872610779144
  65    -0.00091754169104217
  66    -0.00019084433816299
  67    2.6013424070428e-05
  68    0.00012548383935287
  69    -0.00018834580460965
  70    4.6998547098155e-05
  71    6.1282210883461e-05
  72    -0.0023902621127419
  73     -0.00244707831601
  74    0.00069544235759592
  75    -0.0003714200487249
  76    0.00085305384879441
 Sym= A
 Ene=              11
 Spin= Alpha
 Occup=    1.00000
   1    -0.0071947035029774
   2    -0.070265026301441
   3    -0.031556827243484
   4     0.030291203074404
   5     -0.06056346388454