[Molden Format]
made by pyscf v[2.0.1]
[Atoms] (AU)
O   1   8     0.00000000000000     0.00000000000000     0.00000000000000
O   2   8     2.75227162082039     0.00000000000000     0.00000000000000
H   3   1     3.06432366844540     0.00000000000000     1.80733789576484
H   4   1    -0.31205204762501     0.61814596614740     1.69834208391695
[GTO]
1 0
 s    6 1.00
             5484.6717   0.001831099805527
             825.23495   0.013950098518422
             188.04696    0.06844509273075
               52.9645    0.23271427528445
              16.89757    0.47019295006289
             5.7996353    0.35852086192309
 s    3 1.00
             15.539616   -0.11077750382508
             3.5999336   -0.14802630511126
             1.0137618     1.1307670390447
 s    1 1.00
             0.2700058                   1
 p    3 1.00
             15.539616   0.070874299543311
             3.5999336    0.33975279781076
             1.0137618    0.72715859531445
 p    1 1.00
             0.2700058                   1
 d    1 1.00
                   0.8                   1

2 0
 s    6 1.00
             5484.6717   0.001831099805527
             825.23495   0.013950098518422
             188.04696    0.06844509273075
               52.9645    0.23271427528445
              16.89757    0.47019295006289
             5.7996353    0.35852086192309
 s    3 1.00
             15.539616   -0.11077750382508
             3.5999336   -0.14802630511126
             1.0137618     1.1307670390447
 s    1 1.00
             0.2700058                   1
 p    3 1.00
             15.539616   0.070874299543311
             3.5999336    0.33975279781076
             1.0137618    0.72715859531445
 p    1 1.00
             0.2700058                   1
 d    1 1.00
                   0.8                   1

3 0
 s    3 1.00
             18.731137    0.03349459952309
             2.8253937    0.23472694665786
             0.6401217    0.81375731841339
 s    1 1.00
             0.1612778                   1
 p    1 1.00
                   1.1                   1

4 0
 s    3 1.00
             18.731137    0.03349459952309
             2.8253937    0.23472694665786
             0.6401217    0.81375731841339
 s    1 1.00
             0.1612778                   1
 p    1 1.00
                   1.1                   1

[5d]
[7f]
[9g]

[MO]
 Sym= A
 Ene=               0
 Spin= Alpha
 Occup=    2.00000
   1    -9.5065834981587e-06
   2    -0.00055357422224985
   3    0.0027793603141162
   4    0.00020629348790662
   5    -6.3843797746463e-06
   6    6.713988767887e-05
   7    0.0017155456911331
   8    5.9175847055934e-05
   9    0.00030816203807228
  10    4.461426942292e-05
  11    1.5459150519073e-05
  12    8.9246410663659e-05
  13    8.6347273016973e-05
  14    -1.2382657698606e-05
  15      0.99549677304349
  16     0.022757633882316
  17    -0.0069572698923115
  18    -0.00075034101802233
  19    0.00010667595689863
  20     0.001193520673478
  21     0.002655612642895
  22    4.3239142618948e-05
  23    -0.0014408141616513
  24    0.00066834035503774
  25    0.00018960169903106
  26    8.326014007505e-07
  27    -0.00074418780493567
  28    8.1455604458793e-06
  29    -0.00043609724902869
  30     0.001234672792096
  31    5.6102649513077e-05
  32    4.388732753196e-06
  33    0.0011732977504486
  34    -0.00043379350498296
  35    0.00011878866459931
  36    1.0247753013875e-05
  37    3.1335473455215e-05
  38    6.4268764863722e-05
 Sym= A
 Ene=               1
 Spin= Alpha
 Occup=    2.00000
   1      0.99542213895156
   2     0.022930456948123
   3    -0.0067542719519013
   4    0.00068420957872945
   5    0.00024725319403142
   6    0.0010345909326256
   7    -0.0027045104383013
   8    -0.00057387052135064
   9    -0.0014193836243114
  10    0.00062291684358483
  11    -0.00018478828351614
  12    0.00012794737236209
  13    -0.00076970713019396
  14    -5.8674026993192e-05
  15    -5.3891810773869e-06
  16    -0.00056387629584581
  17    0.0027588092352039
  18    -0.00018774779469876
  19    3.2619609872163e-05
  20    6.5328713086793e-05
  21    -0.0016958625014126
  22    5.5166510895133e-05
  23    0.00031436692142839
  24    7.6843722466193e-05
  25    -6.3538262103969e-06
  26    -1.5936385658858e-05
  27    0.00010663024502581
  28    -1.5507429300319e-05
  29    -0.00042781744068065
  30    0.00013031534307889
  31    -8.9715495505061e-06
  32    -7.3406654337889e-06
  33    7.0759555366781e-05
  34    -0.00046466397575703
  35    0.0011990739439628
  36    -5.8497187821005e-05
  37    0.00039601801099609
  38    0.0011020406019279
 Sym= A
 Ene=               2
 Spin= Alpha
 Occup=    2.00000
   1    0.0007392263302893
   2    -0.0014847257912372
   3    -0.0018244170531387
   4    -0.0060398976544139
   5    -0.034491975607516
   6    0.0039763679771844
   7    -0.0059950604931189
   8    -0.054253870609932
   9    0.0048428625903374
  10    -0.00069722347827517
  11    -0.0003562990752659
  12    -0.00079763895454163
  13    0.0006220124226729
  14     0.014368548016655
  15    -0.019069335314413
  16     0.041927201003921
  17     0.055425378427129
  18     0.017300256235772
  19      0.66686620025987
  20    -0.033546562636269
  21     0.011378812080373
  22      0.48166724313818
  23    -0.019142537629441
  24     -0.00168449642363
  25    0.00031230574025862
  26      0.02423846536185
  27    -0.0012409493447891
  28    -0.0088633380950997
  29    -0.0087892351446692
  30    -0.010140999484249
  31    0.00070791335109094
  32     0.021629394623074
  33    -0.00045485146193027
  34    -0.0088131283083541
  35    -0.0019925099225455
  36    0.00060765788604526
  37    -0.0013242124678544
  38    0.0004033872946125
 Sym= A
 Ene=               3
 Spin= Alpha
 Occup=    2.00000
   1     0.019139160228151
   2    -0.041948850758581
   3    -0.055452781222964
   4     0.017309081146067
   5      0.63812587918548
   6     -0.19653986976142
   7     0.011385157170851
   8      0.45916798525673
   9      -0.1467398429204
  10    -0.012228948857608
  11    -0.0027374398969924
  12     0.019904709215002
  13    -0.0067921492643323
  14    0.0084357566196402
  15    -0.00073976664883762
  16    0.0014860701680298
  17    0.0018273470322724
  18    -0.0060423502359549
  19    -0.033772047215271
  20    0.0080597237146215
  21    -0.0059977641143519
  22    -0.052638596912628
  23     0.014004401249634
  24    0.0010820342559606
  25    0.0045789520253063
  26    -0.00042278968086358
  27    -0.0004000579921788
  28    -0.013623961810689
  29    0.0088122224939569
  30    0.0019909441289493
  31    0.00060748034663961
  32    -0.0013823244422433
  33    7.3898489068849e-05
  34    0.0087929968799263
  35      0.01014580310682
  36    0.00070822736643159
  37      0.02048056358176
  38    -0.0069698745328336
 Sym= A
 Ene=               4
 Spin= Alpha
 Occup=    2.00000
   1     -0.11193307968557
   2      0.24715721226677
   3      0.17617147703527
   4    -0.068767533354651
   5      0.14825974980476
   6      0.40129453360226
   7    -0.016814180750561
   8     0.085512949570072
   9      0.23416415174564
  10     0.022929302140465
  11    0.0022626920255164
  12      0.01414404698711
  13    -0.0042645071034748
  14    0.00048362819063416
  15    0.0040416935606124
  16    -0.011748442857157
  17    -0.025126420477513
  18     0.029760084602462
  19    -0.005608378409009
  20    -0.018352726135212
  21     0.039238174004249
  22    -0.010686132506383
  23    -0.024106111077579
  24    -0.001916347101165
  25    -0.0087876057950499
  26    0.00065160916860101
  27     0.002861706863248
  28    -0.0032075138035271
  29    -0.013957888452809
  30    -0.014112069928621
  31    5.5063365240077e-05
  32    -2.3926818816243e-06
  33    0.00085613430842277
  34      0.31023290624018
  35       0.1178386367057
  36     0.006518877976779
  37    -0.011928714675722
  38    -0.031304754983571
 Sym= A
 Ene=               5
 Spin= Alpha
 Occup=    2.00000
   1    0.0040416900199922
   2    -0.011748443343602
   3    -0.025126426343663
   4      -0.0297601157754
   5    -0.0010068382524296
   6    -0.019164071968851
   7    -0.039238194574463
   8    0.0017969110195638
   9     -0.02630719113979
  10    -0.001507265591747
  11    0.0093546805477018
  12    -0.00064619934742881
  13    0.0030978871731258
  14    -8.5392715885852e-06
  15     -0.11193310842767
  16      0.24715726359196
  17      0.17617154106764
  18     0.068767579633599
  19    -0.0020677847360697
  20      0.42780128588517
  21     0.016814213258525
  22    -0.00026703581874167
  23      0.24928944410192
  24      0.02721156442484
  25    -0.0022916438362651
  26    0.00055850883336151
  27    -0.0017921439353411
  28    -0.0003194245111064
  29      0.31023289745275
  30      0.11783862630496
  31    -0.0065188766325508
  32    0.00050246817233938
  33    -0.033496708618065
  34    -0.013957865957007
  35    -0.014112055547175
  36    -5.5063938279595e-05
  37    0.00029506291953421
  38    0.00080368293078963
 Sym= A
 Ene=               6
 Spin= Alpha
 Occup=    2.00000
   1     -0.18949949608245
   2      0.43870947624537
   3      0.51434991720076
   4     -0.16764761345089
   5    -0.057481422370481
   6     -0.34844070069294
   7     -0.12417999687102
   8    -0.033029535569894
   9     -0.22946912861296
  10    -0.012216567177435
  11    -0.010302359104426
  12    -0.0079471478451528
  13    -0.0051899803231039
  14    -0.0025061874263117
  15     0.010468822795574
  16    -0.026306568720674
  17    -0.052659538413431
  18     0.046807969616871
  19    0.0042003822880601
  20      0.01263714668037
  21     0.049757123389031
  22    0.0056999255277386
  23     0.013892197794922
  24    -0.0020895917130236
  25     0.010852651013852
  26    -0.00046834548475399
  27    0.0029538456011926
  28    0.0015350449331684
  29     0.016755935948603
  30     0.029997909816572
  31    0.0033810463403631
  32    0.00010519604887511
  33    -0.00089168530507907
  34    -0.072223623477508
  35     -0.09013407682759
  36    -0.0060578112872356
  37    0.00021344315736744
  38    -0.0062325208295777
 Sym= A
 Ene=               7
 Spin= Alpha
 Occup=    2.00000
   1     0.010468863863796
   2    -0.026306882164785
   3    -0.052658565479975
   4    -0.046808278784989
   5    0.00037327451533294
   6     0.013311882886875
   7    -0.049756816551528
   8    -0.00060759433000478
   9     0.015004257318128
  10    -0.0022829093868347
  11    -0.010723190046589
  12    0.00014490019275917
  13    0.0028423027451587
  14    -0.0022686067007316
  15     -0.18911404505719
  16       0.4387204901568
  17      0.51435012884499
  18      0.16764830582161
  19    -0.065123835928171
  20     -0.34708833836872
  21       0.1241816773027
  22     -0.04742016234746
  23     -0.22692883030965
  24    -0.013970963910396
  25     0.010538311621509
  26    -0.0023794884034793
  27    -0.0062033401475799
  28    0.0011681068927563
  29    -0.072224294949897
  30    -0.090134143261016
  31    0.0060578733553972
  32    -0.0023310820221992
  33    -0.0057832161880542
  34     0.016755310320994
  35     0.029997862389857
  36    -0.0033810126181945
  37    -0.00040388360853247
  38    -0.00080188452275695
 Sym= A
 Ene=               8
 Spin= Alpha
 Occup=    2.00000
   1     0.057889829021508
   2     -0.12021216540237
   3    -0.068382813997624
   4     -0.40514608777858
   5    0.0020335801787512
   6    0.0094747128929715
   7     -0.25383970289251
   8    -0.0044592628887172
   9    -0.014910729227062
  10      0.02085359414591
  11    -0.015919882012583
  12    0.0016441070270407
  13    -0.033641232778373
  14    -0.0048882453749637
  15     0.057889899124362
  16     -0.12021226332106
  17    -0.068382928207909
  18      0.40514606373171
  19    0.0013295918196567
  20    0.0095988830446714
  21      0.25383969086257
  22    -0.00090943982824907
  23    -0.015536632349252
  24     0.021517759278029
  25     0.016631673558005
  26    -0.00046296478338718
  27    -0.033257775239817
  28    0.00085147292985065
  29      0.03196335999008
  30     0.049092556117017
  31     0.010037440002392
  32    0.00021804487883279
  33    0.0010943992181191
  34     0.031963362308337
  35     0.049092541842314
  36    -0.010037440155543
  37    0.00016941014442775
  38    0.0011029720589353
 Sym= A
 Ene=               9
 Spin= Alpha
 Occup=    0.00000
   1     0.017912337556057
   2      -1.6606787758282
   3       3.3910782208001
   4      0.22107386956205
   5    -0.019563338911461
   6     0.076368104465519
   7      0.23357551990695
   8      0.41234741744677
   9      0.98497501725401
  10      0.26895665756745
  11     -0.14127536855286
  12      0.29880134369471
  13      0.28483408104079
  14    -0.088353201950958
  15     0.035959691287316
  16      0.16938571266609
  17     -0.97197405926446
  18     0.087436594315163
  19    -0.0053122158586133
  20    -0.0092374665335535
  21      0.67409134300603
  22    -0.023279918981434
  23     -0.15630684649347
  24     0.061262219011872
  25     0.047375719520954
  26    -0.00036973818254376
  27     -0.18484397684786
  28     0.015216306537364
  29      0.11280009404451
  30      0.10405806262545
  31    -0.040298251641321
  32    0.0097390273996295
  33    -0.0025295896073015
  34     -0.86732304264345
  35      -1.1508739473761
  36    -0.056853659210758
  37      0.10603655999267
  38      0.29651362101656
 Sym= A
 Ene=              10
 Spin= Alpha
 Occup=    0.00000
   1     0.027036561611996
   2      0.15334463101221
   3     -0.77522104025877
   4    -0.050674390536829
   5    0.0009287010813398
   6    -0.017081340741508
   7     -0.50004200038684
   8    -0.040992983122888
   9     -0.20857216502512
  10     0.036349573727097
  11    -0.061705146191824
  12    -0.027396536467725
  13     -0.13140471964008
  14    -0.00028814646079257
  15     0.013947874125288
  16       -1.562219511598
  17       3.2554430061207
  18     -0.27116371805871
  19     0.028026400568482
  20    -0.017865931306599
  21     0.027257217940649
  22    -0.031303092008901
  23       1.2977737747285
  24      0.49721053387101
  25      0.16597819269308
  26    0.0053581779750443
  27      0.22488254849516
  28    -0.021376138179388
  29     -0.97998522023049
  30      -1.2692506209646
  31     0.058713590464572
  32    0.00081917753880568
  33       0.3579180233165
  34      0.12134245501058
  35      0.14838620332096
  36     0.034974121673522
  37    -0.014842248348421
  38    -0.0071091008959359
 Sym= A
 Ene=              11
 Spin= Alpha
 Occup=    0.00000
   1    0.0052458364296855
   2    -0.030026109447563
   3      -0.3739423058327
   4    -0.022362242198099
   5    0.0078756256923401
   6      0.02961338803685
   7     0.097952268995518
   8    -0.040198089778716
   9    -0.059406217284626
  10     0.099959459015121
  11     -0.11117758523847
  12      0.06771018994371
  13       0.0330216226108
  14    -0.037246941215359
  15    0.0016643610264357
  16      0.03304056156942
  17    -0.024056121712092
  18    0.0065503462425661
  19    -0.0039945601668688
  20     0.018946844763727
  21      0.18885631608059
  22    -0.045907235960953
  23     0.023728754933725
  24     0.010075081408598
  25    0.0093770124708851
  26     -0.01001938648891
  27    -0.010848903757815
  28    0.0034345920615187
  29    -0.032168062363937
  30     -0.37330691549378
  31      0.03479956372365
  32    -0.0029607701514002
  33     0.020296633425195
  34      -1.0708857767518
  35       1.6265824570984
  36      0.45435994756707
  37     0.028828119681192
  38    -0.092158203417991
 Sym= A
 Ene=              12
 Spin= Alpha
 Occup=    0.00000
   1    -0.0020732410164591
   2     -0.02883139943904
   3     0.039318241250995
   4    0.0099108125297466
   5    -0.010547499024505
   6    -0.010582110868173
   7      0.17893219816935
   8    -0.046111826842814
   9     0.013842495731791
  10    -3.1092926727514e-05
  11     0.018086818406397
  12    -0.0085739227718349
  13     0.010544649868379
  14    -0.00033962031219041
  15     0.015969642143454
  16    -0.045339704407409
  17      0.07530900686237
  18     -0.04739511226314
  19    -0.0027591453602194
  20     -0.20553681394971
  21     0.072193605020025
  22    -0.016868262773557
  23     -0.14559628490607
  24     -0.26965828604875
  25     -0.14169866543356
  26    -0.013892465537386
  27    -0.042361192242382
  28    -0.0028032232532383
  29       1.3083420390608
  30         -1.4265674859
  31      0.28846358403557
  32     0.057230252731964
  33     -0.39001051839176
  34     0.028743745531015
  35      0.34184577024035
  36     0.035431110830502
  37    -0.0077698459547554
  38    -0.017584094367334
 Sym= A
 Ene=              13
 Spin= Alpha
 Occup=    0.00000
   1      0.08845207508835
   2     -0.42013323672294
   3      -0.3439655215205
   4      0.14187808122346
   5     -0.21218610892947
   6     -0.57567038429677
   7     0.048305222741244
   8      -0.1347485288781
   9     -0.37184366013977
  10    -0.074581937108403
  11     0.014372172090559
  12     -0.05026123384881
  13     0.006021634828139
  14    0.0052020154588186
  15    0.0031971512818124
  16    -0.015821068179064
  17    -0.011326068535526
  18    0.0029848372282848
  19    0.0040855179470318
  20      0.02999792231555
  21    -0.020748863810366
  22    0.0090216885301157
  23      0.01903459098346
  24    0.00063435452405988
  25    -0.0027930140868557
  26    0.0018928499656949
  27    -0.0017614556532212
  28    -0.00093926222780353
  29    -0.047679344994579
  30    -0.011178487257298
  31    -0.0062584352760237
  32    0.00018138027367801
  33    -0.0029617485371458
  34      0.87982297252129
  35      0.55699042645869
  36     0.021517445902297
  37    -0.027067665285122
  38    -0.071023154686875
 Sym= A
 Ene=              14
 Spin= Alpha
 Occup=    0.00000
   1    -0.040390741252605
   2     -0.49567839018422
   3       1.6711427306002
   4     -0.73553385209239
   5    -0.040685070693847
   6     -0.36482211582636
   7       1.8492667228669
   8      0.13003032702315
   9      0.70787989837367
  10     -0.14055528087835
  11     -0.11949325456398
  12     0.013936145614714
  13      0.17409846857195
  14     -0.24073875479278
  15     0.040799599274845
  16      0.13554743889073
  17      -1.3074434880003
  18      0.15628694610529
  19    0.0065014679361586
  20     0.011928520938496
  21      0.97279728835785
  22      0.02019547694748
  23    -0.093235579918605
  24     0.093807423987959
  25     0.038514385123915
  26    0.0024403830967289
  27      -0.2074638030553
  28    -0.020976473853455
  29     0.093970965129575
  30      -0.1710992482575
  31    -0.010260790560329
  32    -0.0016598890287113
  33     0.015656726568772
  34     -0.32140398057101
  35     -0.16036219918252
  36    -0.097130336803737
  37    0.0054719636037644
  38     0.024806627482456
 Sym= A
 Ene=              15
 Spin= Alpha
 Occup=    0.00000
   1    -0.026699018628687
   2    -0.063039440343326
   3      0.65826462441036
   4      0.10138597217256
   5    -0.0021073699844158
   6    -0.048196926106633
   7      0.65628700891448
   8    -0.035178006218783
   9     -0.40634683098621
  10     -0.11548430549601
  11     -0.12281266923945
  12    -0.021077919078663
  13      0.14586899900297
  14     0.015490858352652
  15    -0.034058029378014
  16      0.53273728288533
  17     -0.58383873246106
  18     -0.17494968734154
  19    -0.0036153350009168
  20     -0.73325173818245
  21      0.97848077360081
  22    0.00079336035755562
  23        1.465726882589
  24      0.30087498436676
  25     -0.30516078668615
  26    0.0082597765704526
  27     -0.21228129675743
  28     0.072933253982627
  29     -0.43968413458904
  30     -0.58865593585714
  31      0.04004072664252
  32    -0.0059172285087249
  33     0.074258928344287
  34     0.090430655627973
  35      0.22659767861428
  36    -0.015256380038503
  37    -0.028304132115588
  38    -0.039055307299273
 Sym= A
 Ene=              16
 Spin= Alpha
 Occup=    0.00000
   1    -0.041786014155935
   2     -0.14366280809757
   3       1.3516958817433
   4      0.15757941189787
   5    0.0022149660324704
   6    -0.011365565413475
   7       1.0031053855851
   8     0.050502165331186
   9     0.090875283219085
  10    -0.099711487000303
  11     0.037209043576675
  12     0.017877356794283
  13        0.207597978737
  14     0.033781989596678
  15     0.038755671372072
  16      0.55682069746683
  17      -1.7791138288943
  18     -0.74250351200079
  19     0.068872790123333
  20      0.34219469158494
  21        1.888496548263
  22    -0.099274200890072
  23     -0.71585766866957
  24      0.10607738983052
  25     -0.13768017645097
  26     0.028844778665712
  27     -0.16919413378731
  28      0.20251348834122
  29      0.33609841296522
  30      0.18012846013408
  31     -0.11341196294376
  32    -0.0047902125945914
  33    -0.028651821391831
  34     -0.10056616130392
  35      0.17150113418765
  36    -0.013370544590997
  37    -0.0064193547218826
  38     -0.01407809928706
 Sym= A
 Ene=              17
 Spin= Alpha
 Occup=    0.00000
   1    0.00061621915145013
   2    -0.017351502578642
   3    -0.032947087167446
   4    -0.0071623820627763
   5    -0.00098085135864999
   6    -0.019315078368932
   7     0.065098423925814
   8     -0.02401879198474
   9    -0.059944133213992
  10    -0.012264510813299
  11    -0.020176736457519
  12    -0.0054104225736258
  13      0.01433869310874
  14    0.00089220665947285
  15    -0.061373769563966
  16      0.22190075718052
  17      0.91684541913937
  18     0.070282067611385
  19    -0.00028627052148052
  20      0.49290734739036
  21      0.10348592251139
  22    -0.0044893824448749
  23      0.62471748056812
  24      0.41231216191242
  25     0.056753007589556
  26    -0.0037181883949316
  27    -0.0085830334806547
  28    -0.0011511097960504
  29     -0.47845392251974
  30     -0.87146506730693
  31      0.51464055113899
  32     0.013098742641504
  33       1.3528302804417
  34     0.016565472353408
  35      0.15637378978781
  36    0.0046445546600321
  37    -0.0074161191164158
  38    -0.0047331116204541
 Sym= A
 Ene=              18
 Spin= Alpha
 Occup=    0.00000
   1    -0.010717090386421
   2    -0.020785763971527
   3      0.28754142617353
   4     0.043871083386102
   5    -0.037800258206445
   6    -0.0034587449054459
   7       0.2363939850276
   8     -0.31094207063974
   9    -0.019626396887091
  10    -0.038524403129996
  11    0.0047052408551165
  12    -0.014637299865018
  13     0.059275909220375
  14     -0.15796169867123
  15    0.0058859601853335
  16      0.12197016656988
  17      -0.3404739530967
  18     -0.14394157204948
  19     -0.69357565383613
  20     0.033411499384584
  21      0.42042299147291
  22      0.89879855909578
  23    -0.037864740024229
  24      0.07840078755374
  25    -0.019873794503383
  26     0.047648412426685
  27    -0.085859374149824
  28     -0.72312235023558
  29      0.01142768356536
  30    -0.012555094361778
  31    -0.019101985252996
  32    -0.064083530472173
  33     0.014485234204415
  34     0.032583703351612
  35     0.029013493250633
  36    -0.0016889403769213
  37     0.020738712163126
  38    -0.020040504765022
 Sym= A
 Ene=              19
 Spin= Alpha
 Occup=    0.00000
   1    -0.063290307140003
   2      0.22543600635195
   3       0.8414084500669
   4    -0.083207696261375
   5      0.18314273439967
   6      0.50136045009726
   7    -0.078677525287464
   8      0.22013391529284
   9      0.59917921409204
  10      0.39240116442955
  11    -0.097029781708852
  12      0.26947054439776
  13    -0.043477234705196
  14    -0.035910117660613
  15    0.0011632319486775
  16    -0.0066931932296858
  17    -0.041556933063078
  18    0.0095883451015086
  19    -0.0075013801856637
  20    -0.012833702803772
  21    -0.0035132310339086
  22     -0.01446901410243
  23    -0.059956833857192
  24    -0.012031219527937
  25     0.022750155672236
  26    -0.0015736309762786
  27     0.010172823762725
  28    0.0095651499941595
  29    0.0064192197961572
  30     0.034587897030044
  31    0.0072359982464238
  32     0.004693885702871
  33    -0.0002590890910459
  34     -0.88222902583336
  35     -0.35626166449738
  36     -0.37640632301931
  37      0.47479248500774
  38       1.3288830484578
 Sym= A
 Ene=              20
 Spin= Alpha
 Occup=    0.00000
   1    -0.00085011005115401
   2    0.0036349499936166
   3     0.030103947843498
   4    -0.00037168063820226
   5    -0.087694584132757
   6     0.034972877974901
   7    -0.011423867383145
   8     -0.22420146332182
   9     0.094365770110477
  10      0.12398315773593
  11    -0.0062390230890051
  12     -0.17555680673672
  13     0.070641361907404
  14     0.028688904259699
  15    0.00059211015330145
  16    -8.9503490435566e-07
  17     -0.01465795823582
  18    -0.001030190679561
  19    0.0076693367707057
  20    -0.005687163319342
  21    -0.015281859849939
  22     0.041576614721836
  23    -0.028591019481592
  24    -0.008893422600545
  25    0.0044829788607337
  26    0.0058681122712544
  27    -0.00086083792900839
  28    -0.018156197170312
  29     0.012571259622496
  30     0.040266655591345
  31    -0.0020418271077139
  32    -0.0028479537956366
  33    -0.0066540294643228
  34     0.054974905301037
  35     -0.10297091945547
  36     -0.01806772174063
  37       1.0485453177106
  38     -0.36050057580266
 Sym= A
 Ene=              21
 Spin= Alpha
 Occup=    0.00000
   1    -0.0011266219505776
   2    -0.058205074009862
   3      0.28178844862477
   4    -0.014299319511833
   5    0.0016745731936645
   6     0.032019561369197
   7      0.17502942478413
   8    0.0014064966587922
   9      0.13545227865771
  10     0.030744370313142
  11      0.11879940334789
  12     0.016232403229605
  13    -0.014160696007755
  14    0.0091353877810912
  15     -0.01518484887872
  16      0.29835434132918
  17     -0.40282198848857
  18      -0.1562748187975
  19     -0.12490132356866
  20     -0.14164593363547
  21      0.42282068550337
  22      0.14414687161363
  23       0.1636688124555
  24     -0.20590249768021
  25      0.96417056366912
  26    -0.042139303133578
  27      0.28445603678681
  28      0.13958566156341
  29    -0.043060694442777
  30    -0.059071359015454
  31     -0.23183765879824
  32    -0.0080508565163001
  33     0.050758757894451
  34    -0.069650126521067
  35     0.026528774671307
  36    -0.030657177678149
  37    0.0056966463281762
  38    0.0043921347271463
 Sym= A
 Ene=              22
 Spin= Alpha
 Occup=    0.00000
   1    -0.0075337267129852
   2     0.082735379172146
   3      0.14858776706454
   4    -0.087041743297747
   5     0.013646035465518
   6      0.03654838792634
   7     -0.39062777773234
   8     0.023354532971117
   9     0.055418783522226
  10    -0.041516908775645
  11       -0.194292138601
  12    -0.027773820666939
  13    -0.0029800882715816
  14    -0.071813949680629
  15    -0.0074550654828818
  16    0.0066347834984956
  17      0.17998564162711
  18    -0.035745019194382
  19    0.0041461700590364
  20    0.0015715669245181
  21     -0.13457374885913
  22     0.008757921451182
  23    -0.027914067527058
  24     -0.02625861498045
  25    -0.029834154282511
  26    -0.00051582771584881
  27     0.021052111466943
  28    -0.010606844099041
  29     0.038909627943131
  30     0.094529446087115
  31    -0.014146382008821
  32     0.002764400466936
  33     -0.01021746255058
  34      0.35758794896697
  35     -0.73841602378422
  36      0.96752232500237
  37      0.13338974358181
  38      0.39789253751255
 Sym= A
 Ene=              23
 Spin= Alpha
 Occup=    0.00000
   1    -0.00060392123414043
   2    -7.5261127666866e-05
   3     0.014755232389391
   4    -0.0010276809185219
   5    0.0091709710235796
   6    0.0025295786551378
   7    -0.014685563156135
   8     0.048668348166141
   9     0.011734038508165
  10    0.0037309347652989
  11    -0.0022109858823475
  12    0.0096615116592419
  13    -0.0017522498125776
  14     0.018608902051896
  15    -3.0456810716222e-05
  16    -0.00029187424841448
  17    -0.018121810193121
  18    0.0010554503641919
  19    -0.094373286040537
  20    0.0044440746406673
  21    -0.008919542418055
  22     -0.24296833005504
  23    -0.0031629757452231
  24    0.0088734223789401
  25    0.0060538014715794
  26     -0.22622487955594
  27    0.0025119425947215
  28    -0.029104380554603
  29    -0.065206876412571
  30     0.094980350125673
  31    -0.016353369505973
  32       1.1086704295191
  33    0.0006760608619009
  34     -0.01233281387118
  35    -0.039335821581285
  36    -0.0020767688912604
  37    -0.00048629836254538
  38    0.0072072540518336
 Sym= A
 Ene=              24
 Spin= Alpha
 Occup=    0.00000
   1    -0.016216262616342
   2    0.0088318863967425
   3      0.23140119858997
   4    -0.067920572882853
   5     -0.71434986832068
   6    -0.051778768516733
   7     0.083619952796917
   8      0.99063144134855
   9      0.24760088157573
  10    -0.0014007288982833
  11     -0.12455322481201
  12     0.015824132887547
  13       0.0270292426536
  14      0.69073844439863
  15    0.0030986293809425
  16    0.0049554597856526
  17    -0.094497449469657
  18      0.01374000602425
  19    -0.037628853792914
  20    -0.0022548279047954
  21     0.031753870443642
  22     -0.30570942087034
  23    -0.031034236134457
  24     0.005295450449216
  25    -0.0020855859554234
  26    -0.0076118677994429
  27    -0.014749951876893
  28      0.16097328679799
  29    0.0075339113858478
  30     0.053097554570548
  31    0.00090816262031035
  32     0.029351349267665
  33    -0.0049701913504592
  34     -0.16782417728748
  35     -0.22038016340299
  36     -0.03712426402806
  37    -0.045261141575655
  38     0.024397483910366
 Sym= A
 Ene=              25
 Spin= Alpha
 Occup=    0.00000
   1     0.042426946913143
   2     0.049217735302636
   3     -0.78175849139355
   4      -0.1839753404233