[Molden Format]
made by pyscf v[2.0.1]
[Atoms] (AU)
C   1   6     0.00000000000000     0.00000000000000     0.00000000000000
C   2   6     2.89040035821050     0.00000000000000     0.00000000000000
H   3   1     3.65380793584534     0.00000000000000     1.93990930394644
H   4   1     3.65380793584534    -1.68001073825540    -0.96995465197322
H   5   1     3.65380793584534     1.68001073825540    -0.96995465197322
H   6   1    -0.76340757763484    -1.91043772266697     0.33686171546942
H   7   1    -0.76340757763484     1.24694966449241     1.48605674244297
H   8   1    -0.76340757763484     0.66348805817456    -1.82291845791239
[GTO]
1 0
 s    8 1.00
                  6665  0.00069158396281299
                  1000  0.0053257961529341
                   228   0.027060721042034
                 64.71    0.10165684614077
                 21.06     0.2745748236174
                 7.495    0.44829431892377
                 2.797    0.28490261071525
                0.5215   0.015194859206082
 s    8 1.00
                  6665  -0.00029326965268655
                  1000  -0.0023180354739745
                   228  -0.011499786038565
                 64.71  -0.046826727009787
                 21.06   -0.12846616875047
                 7.495   -0.30126627246289
                 2.797   -0.25563070233011
                0.5215      1.093793361012
 s    1 1.00
                0.1596                   1
 p    3 1.00
                 9.439   0.056979251590039
                 2.002    0.31320721150073
                0.5456    0.76037674173753
 p    1 1.00
                0.1517                   1
 d    1 1.00
                  0.55                   1

2 0
 s    8 1.00
                  6665  0.00069158396281299
                  1000  0.0053257961529341
                   228   0.027060721042034
                 64.71    0.10165684614077
                 21.06     0.2745748236174
                 7.495    0.44829431892377
                 2.797    0.28490261071525
                0.5215   0.015194859206082
 s    8 1.00
                  6665  -0.00029326965268655
                  1000  -0.0023180354739745
                   228  -0.011499786038565
                 64.71  -0.046826727009787
                 21.06   -0.12846616875047
                 7.495   -0.30126627246289
                 2.797   -0.25563070233011
                0.5215      1.093793361012
 s    1 1.00
                0.1596                   1
 p    3 1.00
                 9.439   0.056979251590039
                 2.002    0.31320721150073
                0.5456    0.76037674173753
 p    1 1.00
                0.1517                   1
 d    1 1.00
                  0.55                   1

3 0
 s    3 1.00
                 13.01   0.033498726389998
                 1.962    0.23480080117413
                0.4446     0.8136829578829
 s    1 1.00
                 0.122                   1
 p    1 1.00
                 0.727                   1

4 0
 s    3 1.00
                 13.01   0.033498726389998
                 1.962    0.23480080117413
                0.4446     0.8136829578829
 s    1 1.00
                 0.122                   1
 p    1 1.00
                 0.727                   1

5 0
 s    3 1.00
                 13.01   0.033498726389998
                 1.962    0.23480080117413
                0.4446     0.8136829578829
 s    1 1.00
                 0.122                   1
 p    1 1.00
                 0.727                   1

6 0
 s    3 1.00
                 13.01   0.033498726389998
                 1.962    0.23480080117413
                0.4446     0.8136829578829
 s    1 1.00
                 0.122                   1
 p    1 1.00
                 0.727                   1

7 0
 s    3 1.00
                 13.01   0.033498726389998
                 1.962    0.23480080117413
                0.4446     0.8136829578829
 s    1 1.00
                 0.122                   1
 p    1 1.00
                 0.727                   1

8 0
 s    3 1.00
                 13.01   0.033498726389998
                 1.962    0.23480080117413
                0.4446     0.8136829578829
 s    1 1.00
                 0.122                   1
 p    1 1.00
                 0.727                   1

[5d]
[7f]
[9g]

[MO]
 Sym= A
 Ene=               0
 Spin= Alpha
 Occup=    1.00000
   1       1.0022681450264
   2    0.0054709237652066
   3    -0.0088586189208452
   4    -0.00021046949936604
   5    -1.7512533422321e-07
   6    -6.1424364676605e-08
   7    -0.00078997430309706
   8    -8.0496302870945e-08
   9    -2.5809713076034e-08
  10    8.8971377413604e-05
  11    -4.9742020035029e-09
  12    -6.2992131711327e-09
  13    -0.00015411714178896
  14    4.3729700476404e-09
  15    -0.00012776428042156
  16    0.00016410107989558
  17    0.0023523646300492
  18    -0.00031277731451821
  19    -5.850972866215e-08
  20    -1.5436695464427e-07
  21    -0.0011805785229186
  22    -2.3890377142358e-08
  23    -7.0375668962954e-08
  24    9.9391634296695e-05
  25    -3.401232166189e-09
  26    1.5424080100768e-09
  27    -0.00017216792715589
  28    6.0869102054867e-09
  29    -9.9441819951261e-05
  30    0.0001100142254391
  31    -4.7035513684053e-05
  32    -3.2878280126662e-06
  33    -1.8335141317587e-05
  34    -9.9213836148324e-05
  35    0.00011009789371144
  36    -4.7043558566088e-05
  37    1.7534578713336e-05
  38    6.3249637506087e-06
  39    -9.9279906726358e-05
  40    0.00011009244380874
  41    -4.7041411283759e-05
  42    -1.424435306024e-05
  43    1.2013146144028e-05
  44    0.0004776278141311
  45    0.0012609811944674
  46    -8.92650962898e-05
  47    -0.00036321144039114
  48    6.5293550283966e-05
  49    0.00047736160662052
  50    0.0012608762940397
  51    -8.9274448801371e-05
  52    0.00023816028258064
  53    0.00028191482172192
  54    0.00047747823080006
  55    0.0012609060817416
  56    -8.9270512377016e-05
  57    0.0001250544984411
  58    -0.00034720607570081
 Sym= A
 Ene=               1
 Spin= Alpha
 Occup=    1.00000
   1    -0.00012778990383623
   2    0.00016397511285548
   3    0.0023522901602628
   4    0.00031287569408391
   5    -6.5902690352224e-08
   6    -3.4777836443899e-09
   7    0.0011806260206148
   8    -5.4487303894871e-08
   9    -1.2490011264655e-08
  10    9.9394244273429e-05
  11    3.0704510353114e-08
  12    -1.0571833548722e-08
  13    -0.00017215822351283
  14    3.5485311409687e-08
  15       1.0022681443756
  16     0.005470972854466
  17    -0.0088585866818215
  18    0.00021045636177507
  19    6.8995644045746e-07
  20    6.3010376905945e-07
  21    0.00078996638667108
  22    3.3044520824391e-07
  23    2.9993706031833e-07
  24    8.9006594272646e-05
  25    2.5778693806482e-08
  26    -3.7488120400529e-08
  27    -0.00015410032988591
  28    3.1033359032199e-08
  29    0.00047805459347364
  30    0.0012611619845381
  31    8.9249814543079e-05
  32    -1.211959370941e-06
  33    0.00036900924765919
  34    0.00047670962675238
  35    0.0012605642275308
  36    8.929552755811e-05
  37    -0.00031901475238173
  38    -0.00018559988986573
  39    0.00047775886240426
  40    0.0012610349226411
  41    8.9259690624007e-05
  42    0.00032021490959445
  43    -0.00018342054111082
  44    -9.930907528662e-05
  45    0.00011012718557136
  46    4.7040822021178e-05
  47    1.8624119672944e-05
  48    5.1274076458414e-08
  49    -9.9512802337429e-05
  50    0.00010992918891944
  51    4.7034695729786e-05
  52    -9.2673556629727e-06
  53    -1.6154962447128e-05
  54    -9.9394156735467e-05
  55    0.00011008445407716
  56    4.703991830262e-05
  57    -9.3598492014856e-06
  58    1.6098333663159e-05
 Sym= A
 Ene=               2
 Spin= Alpha
 Occup=    1.00000
   1    -0.002437587955686
   2    -0.020545413042285
   3    -0.014749003171582
   4    -0.025102785527425
   5    -0.00070817608970125
   6    -0.0012337197519669
   7    -0.014927303545874
   8    0.0088824833305771
   9    0.0014968253061013
  10    -0.0021606609802074
  11    -0.008433057374008
  12    0.0031757558191439
  13    0.0038875348926839
  14    -0.014248701317487
  15    -0.013381943642298
  16      0.18309434810694
  17      0.10996018481331
  18      0.12434548748062
  19      -0.2992048046901
  20     -0.17375279339833
  21     0.060940695013834
  22     -0.14248603339656
  23    -0.082417058406161
  24    -0.0038453301360012
  25    -0.0070289071200627
  26     0.015873299163343
  27      -0.0107308092377
  28    -0.012065959970169
  29    -0.020230618474324
  30    -0.037607359318979
  31     0.002540355636441
  32    -0.0091858671604603
  33    -0.0077310255994368
  34      0.43103507729018
  35      0.16151805759365
  36    -0.012830960419297
  37      0.02596654631437
  38      0.01484680976356
  39    -0.019964635348943
  40    -0.037121142253786
  41    0.0025602970370915
  42     -0.01145339489261
  43    -0.0040467927500305
  44    -0.018639461333091
  45    -0.021343566698763
  46    -0.0016847690135006
  47    0.00086395830656213
  48    0.00019602599828706
  49     0.022820227067996
  50     0.040520258031846
  51    -0.0004248216062364
  52     0.000766242520253
  53    0.00090839350383565
  54    -0.0044277493646646
  55    -0.0036313030688794
  56    -0.0019054540032458
  57    0.0003478761410708
  58    0.00054467393362835
 Sym= A
 Ene=               3
 Spin= Alpha
 Occup=    1.00000
   1    -0.013383641526358
   2       0.1830933523701
   3      0.10995933240674
   4     -0.12434942086459
   5      0.11752505506018
   6     -0.32542408218017
   7    -0.060942559047698
   8     0.056177256478052
   9     -0.15472173747557
  10     0.015915732258173
  11     0.013140168162829
  12     -0.01131949397487
  13    0.00067792469863794
  14    -0.0047251577554884
  15    -0.0024370893342971
  16    -0.020545869873598
  17    -0.014749557648034
  18     0.025106976965127
  19    -0.00024855733123887
  20    -0.001400291075651
  21     0.014929291060299
  22    -0.0058414548142198
  23    0.0068560369230989
  24    0.0004960546972796
  25     0.015618824868289
  26    -0.00048001641612125
  27      0.00542103437899
  28    -0.0054947324743819
  29     0.022821141475344
  30      0.04052050574943
  31    0.00042488794947572
  32    -3.0230827532606e-06
  33    0.0011882920749976
  34    -0.004427504081881
  35    -0.0036305625568127
  36    0.0019055528093822
  37    8.3635485434725e-05
  38    0.00064083327173546
  39    -0.018637156249942
  40    -0.021342870720427
  41    0.0016848044382376
  42    -0.00053598057675448
  43    0.00070562066250374
  44    -0.019969164733479
  45    -0.037122863447427
  46    -0.002560556253984
  47    0.0061723941954006
  48    -0.010461950177891
  49    -0.020223690982161
  50    -0.037604273403768
  51    -0.0025402255943529
  52    0.0020672117913842
  53     -0.01182721641458
  54      0.43103512777655
  55      0.16151818499964
  56      0.01283085952446
  57    -0.010347971442536
  58     0.028064399143432
 Sym= A
 Ene=               4
 Spin= Alpha
 Occup=    1.00000
   1    -0.0024373865993074
   2    -0.020546420333729
   3    -0.014749980595989
   4    -0.025108186823112
   5    0.0014240534698236
   6    6.6045475179085e-06
   7    -0.014929859755299
   8    -0.0057368068835808
   9    0.0069454487148312
  10    -0.0046365614386797
  11    -0.0081232563286387
  12    -0.0015248487292659
  13    0.0024576089588217
  14     0.014427512114427
  15    -0.013384234448599
  16      0.18309301773681
  17      0.10995904572815
  18      0.12435073648903
  19       0.3000763787109
  20     -0.17224099050832
  21      0.06094317629125
  22      0.14261809932771
  23    -0.082187337768948
  24    -0.0044541950395085
  25    -0.006935055857409
  26    -0.015467180936661
  27    -0.011082780992379
  28     0.012120102388765
  29    -0.019962401000467
  30    -0.037120196081755
  31    0.0025603571072773
  32     0.009231308275348
  33    -0.0078956922717095
  34    -0.020229739067486
  35    -0.037606564804444
  36    0.0025404618228667
  37      0.01128821912014
  38    -0.0040896162040997
  39      0.43103521860533
  40      0.16151828921093
  41    -0.012830822793095
  42    -0.025841002684623
  43       0.0150643280359
  44     0.022820615261241
  45      0.04052049943955
  46    -0.0004249495019296
  47    -0.0011697333093663
  48     0.000209474089083
  49    -0.0044236513377314
  50    -0.0036294295040014
  51    -0.0019054521709175
  52    -0.00064581476664248
  53    2.8756745268514e-05
  54    -0.018640093192485
  55    -0.021343592342807
  56    -0.0016849299882501
  57    -0.00060166968302423
  58    0.00065022223322571
 Sym= A
 Ene=               5
 Spin= Alpha
 Occup=    1.00000
   1    -0.013383240592764
   2      0.18309208577056
   3      0.10995854433877
   4     -0.12434896046528
   5      0.22306341447278
   6      0.26449273007799
   7     -0.06094231877307
   8      0.10590465082796
   9      0.12601223415336
  10    0.0060598410465635
  11    -0.010662224506293
  12     0.017890190537418
  13    -0.0050123715292305
  14    -0.0090173906574095
  15    -0.0024369721355244
  16    -0.020546329622271
  17    -0.014749848133094
  18     0.025106910274646
  19    0.0013321152543688
  20    0.0004850813333555
  21     0.014929232912595
  22    -0.0030190855391979
  23    -0.0084868010919919
  24    -0.0032230297802043
  25     -0.01256803133898
  26    0.0029596875775308
  27    0.0032737710137333
  28    -0.010779150154011
  29    -0.018637311617203
  30    -0.021342959344298
  31    0.0016848063859407
  32    -0.00034324559394783
  33    -0.00081695973072303
  34     0.022824513591544
  35     0.040522121135561
  36    0.00042476978789942
  37    -0.0010274990335555
  38    -0.00059662766839179
  39    -0.0044314940798796
  40    -0.0036322618735013
  41    0.0019056877860444
  42    -0.00059664394956264
  43    -0.00024815658871985
  44    -0.020225023720435
  45    -0.037605028537954
  46    -0.0025402653846033
  47    0.0092089826290007
  48    0.0077039164676431
  49       0.4310354824785
  50      0.16151878132064
  51     0.012830880835723
  52    -0.019130461302315
  53    -0.022993755290564
  54    -0.019970511518427
  55    -0.037123159086037
  56    -0.0025606032460209
  57    0.0059741914462136
  58     0.010576311116413
 Sym= A
 Ene=               6
 Spin= Alpha
 Occup=    1.00000
   1    -0.0024370269440442
   2    -0.020545890935437
   3    -0.014749542401666
   4    -0.025106452702551
   5    -0.00071396277155031
   6    0.0012274275935724
   7    -0.014929019809675
   8    -0.0031447326666858
   9    -0.0084421923910386
  10    0.00012711909375113
  11     0.016556397784164
  12    -0.0016508355454038
  13    0.0052080191498632
  14    -0.00017898071116441
  15    -0.013384809408762
  16      0.18309208504168
  17      0.10995860314754
  18      0.12434829191002
  19    -0.00087347611624619
  20      0.34599581244722
  21     0.060942005199001
  22    -0.00013301684543541
  23      0.16460533900084
  24     0.019355656348025
  25     0.013964030830188
  26    -0.00040600413388325
  27     0.002664038658676
  28    -5.4311864674936e-05
  29      0.43103550271959
  30      0.16151878285894
  31    -0.012830891230553
  32    -0.00012560542931412
  33    -0.029911052147896
  34    -0.019963924822971
  35    -0.037120591919083
  36    0.0025603601346345
  37    0.0022220530170397
  38     0.011942361879328
  39    -0.020232273331997
  40    -0.037607870566224
  41    0.0025404934679069
  42    -0.0021022372687887
  43     0.011820643221153
  44    -0.0044276507769638
  45    -0.0036313376818856
  46    -0.0019055402247757
  47    0.00029779735235076
  48    -0.00057369393845088
  49    -0.018640053333382
  50    -0.021343729536978
  51    -0.0016848765768303
  52    -0.00026216424264834
  53    -0.00084626241062006
  54     0.022823600244974
  55     0.040521849992311
  56    -0.00042479748762054
  57    0.0004034900366664
  58    -0.0011176082818663
 Sym= A
 Ene=               7
 Spin= Alpha
 Occup=    1.00000
   1    -0.013383891187617
   2      0.18309213058187
   3      0.10995854975045
   4     -0.12434946182685
   5     -0.34058869927668
   6     0.060933246172704
   7    -0.060942576939646
   8     -0.16208195089069
   9     0.028710403407565
  10    -0.010919479133514
  11    -0.0024780552242004
  12    -0.0065705959054628
  13    -0.014815382121064
  14     0.013742444718838
  15    -0.0024372755113015
  16    -0.020545277013578
  17    -0.014749231334171
  18     0.025107901954818
  19    -0.0010859133674024
  20    0.00091450894155638
  21     0.014929719104687
  22    0.0088594405409372
  23    0.0016303849516616
  24    -0.0039430880315486
  25    -0.0030509133105155
  26    -0.0024795403543519
  27    0.0028579822937551
  28     0.016273797386617
  29    -0.004427766640218
  30    -0.0036308546725544
  31    0.0019055783671028
  32    0.00051323731847172
  33    -0.00039287524206432
  34    -0.018638065410253
  35     -0.02134338178554
  36    0.0016848496774197
  37    0.00087909825574543
  38    0.00011130175321142
  39      0.02282406785671
  40      0.04052176198713
  41    0.00042480443634285
  42    0.0010304623866083
  43    -0.00059143032707317
  44      0.43103543570881
  45      0.16151871308256
  46     0.012830859554644
  47     0.029478425252851
  48    -0.0050705625899461
  49    -0.019969586522336
  50    -0.037122941140185
  51    -0.0025605846917989
  52    -0.012146503061156
  53    -0.00011440788649192
  54    -0.020225306106202
  55    -0.037604905855217
  56    -0.0025402890193398
  57    -0.011276249012595
  58    0.0041232400037723
 Sym= A
 Ene=               8
 Spin= Alpha
 Occup=    1.00000
   1     0.010930317929701
   2     -0.19891667883012
   3     -0.14944172514794
   4     -0.36543386559973
   5    2.5202576607187e-07
   6    -3.5195733219577e-07
   7     -0.16965410889022
   8    2.179443743757e-07
   9    -1.7428113377925e-07
  10     0.015975090914997
  11    -2.7017548196028e-08
  12    2.3208691928312e-08
  13    -0.027669606465963
  14    -1.7736623416296e-07
  15     0.010930263617314
  16     -0.19891497052325
  17     -0.14944067951998
  18       0.3654346980564
  19    -3.4919206542934e-06
  20    -8.2604567976716e-07
  21      0.16965449491927
  22    -1.6715680009529e-06
  23    -3.8336908151062e-07
  24     0.015975083350489
  25    -1.6997293642358e-08
  26    1.8431249880607e-07
  27    -0.027669725291094
  28    -1.5333184208305e-07
  29     0.022188849533079
  30     0.037356494337042
  31     0.009205085414175
  32    2.0454758497784e-06
  33    0.0013854504568518
  34     0.022192525055299
  35     0.037358091364158
  36    0.0092049611601309
  37    -0.0012007686139455
  38    -0.00069074162883404
  39     0.022187232981167
  40     0.037355729069689
  41    0.0092051409105705
  42    0.0011987837405998
  43    -0.00069469155942737
  44     0.022187933830874
  45     0.037356110459421
  46    -0.0092051107989555
  47    -0.001364868891477
  48    0.00023847037197744
  49     0.022188564907901
  50     0.037356856742138
  51    -0.0092050885895988
  52    0.00088897988418078
  53    0.0010627720185143
  54     0.022188828372004
  55      0.03735674985176
  56    -0.0092050865997798
  57    0.00047590890953482
  58    -0.0013012259168396
 Sym= A
 Ene=               9
 Spin= Alpha
 Occup=    0.00000
   1      -1.0436442828691
   2      -2.0483927443318
   3       6.6731216150079
   4     0.058146728465925
   5    -0.014501825961869
   6    -0.025194627335729
   7      0.54119494357833
   8       0.0425609358298
   9    -0.0092870387796107
  10     0.010819235703174
  11    0.0078520031836083
  12    -0.058973044685418
  13     0.056864456717869
  14     0.019485681067502
  15      0.10709231659959
  16      0.12322374152611
  17      -2.2963632674638
  18      0.23176294943929
  19    -0.0049149445124977
  20    -0.00070054403946317
  21       1.3162180249416
  22     -0.01821180899412
  23    -0.0048291248274939
  24     0.044017169198061
  25    -0.00078239069288864
  26    0.0055607359194763
  27    -0.083418097280518
  28    0.0053395464591949
  29      0.12463992926573
  30    -0.045600806712708
  31    -0.052817356439583
  32    0.0030344109401076
  33    0.0064924830068841
  34      0.11559907366448
  35    -0.052841826315356
  36    -0.050357337447222
  37    -0.0084289649028633
  38    -0.001848722420949
  39      0.12447411111267
  40    -0.047237398805197
  41    -0.051736137021903
  42    0.0051066243360665
  43    -0.0064195796791323
  44     -0.62824134850445
  45     -0.84624043453299
  46    -0.028196024323333
  47    -0.074140392887547
  48    -0.00013686253261612
  49     -0.61147073424525
  50     -0.87332787965619
  51    -0.026046293742653
  52     0.042705213225373
  53     0.038737387460988
  54     -0.67226006294552
  55     -0.88262244756541
  56    -0.045060690070297
  57     0.023514793095263
  58    -0.080547592866501
 Sym= A
 Ene=              10
 Spin= Alpha
 Occup=    0.00000
   1      0.10965536195457
   2      0.12920263625183
   3      -2.3107254555019
   4     -0.22586498949012
   5    -0.00027853645732498
   6    0.0075950608832954
   7       -1.325875469332
   8    -0.0045289507764525
   9     0.027506617916457
  10      0.04172041399193
  11     0.010046691642925
  12    0.0037244594915232
  13    -0.079855558853699
  14    0.00061941864296285
  15      -1.0436735417692
  16      -2.0482322914601
  17       6.6834575056865
  18    -0.045776644581329
  19    0.0050061851900221
  20     0.035151095482759
  21     -0.56594904092705
  22     0.035625723657433
  23    -0.041399548231248
  24     0.019999452611481
  25     0.045519112274932
  26    -0.029278379420734
  27     0.036926779382153
  28     0.012344209644599
  29     -0.66510289064383
  30     -0.84837505504123
  31     0.039828438303446
  32    0.0017565665475733
  33     0.089519564290219
  34     -0.60766220991033
  35     -0.85390151701561
  36     0.033339450741771
  37    -0.050628067005986
  38    -0.024041998541402
  39     -0.65004129643367
  40     -0.88937513327873
  41       0.0414778110405
  42     0.063793794967206
  43    -0.029335950786843
  44      0.11998634672612
  45    -0.050336293004812
  46     0.052816751071132
  47    -0.0084780867230787
  48    -0.0024096750314748
  49       0.1178180085642
  50    -0.058418861316953
  51     0.049522380165947
  52    0.0030548384185612
  53    0.0069441206428232
  54      0.12903947303832
  55    -0.044540534277931
  56     0.053680302693161
  57    0.0051984986040799
  58    -0.006451829983429
 Sym= A
 Ene=              11
 Spin= Alpha
 Occup=    0.00000
   1    -0.0046861346991046
   2    -0.0085438126661418
   3     0.041169605569673
   4    -0.018281952226304
   5     -0.06596118259476
   6      -0.4001272497775
   7      0.11817316740519
   8    -0.087845561357032
   9       2.9328941310597
  10     -0.32537192653814
  11      -0.7247022699053
  12      0.26639322743012
  13     -0.16539526000693
  14     0.060173070458506
  15    0.00069430787959456
  16    -0.0015055881410027
  17    -0.085769445058071
  18     0.012099388422058
  19    0.0062348876683916
  20    -0.017813910216621
  21     0.057831635815363
  22      0.12214983150511
  23     -0.69492942317364
  24    0.0029186289839945
  25    -0.031320966484092
  26    -0.015943903657322
  27    -0.0045860757600833
  28     0.017016293020947
  29      0.12103817046098
  30     0.061022167419381
  31     0.070733247343378
  32    -2.107878129103e-05
  33    -0.017901260178162
  34    -0.030223152906243
  35     0.062312706576238
  36    -0.049759643232377
  37    -0.029709023564474
  38     0.057066183094311
  39    -0.084539832647916
  40     -0.15405099364259
  41    -0.022532570472461
  42     0.052756214827608
  43     0.043938451366022
  44     -0.28628039068002
  45     -0.29206146702255
  46    -0.037319222442431
  47     -0.12190186740322
  48     -0.22519736787862
  49     -0.69188867052491
  50      -1.1209382449132
  51    -0.033807622919817
  52      0.19290630953401
  53     0.015602191071021
  54       1.0007567267968
  55       1.4751791297622
  56     0.057522445625151
  57     -0.17676371203101
  58      0.17831077556173
 Sym= A
 Ene=              12
 Spin= Alpha
 Occup=    0.00000
   1    0.0049598032901574
   2    0.0094615017422223
   3    -0.040481331869789
   4     0.011379065749591
   5     -0.37210139232036
   6     0.032485444823011
   7    -0.041671047729116
   8       2.8919983212077
   9     0.094972127709908
  10      0.25329677203326
  11    -0.033335131974553
  12      0.30396621843897
  13      0.15770731806473
  14     -0.79653570665678
  15    -0.0021930637086084
  16    -0.0040033917187237
  17     0.035232531336587
  18    0.00045867886626446
  19    -0.0083607338522553
  20    -0.0098163662730493
  21    -0.022851271416026
  22     -0.66452464107499
  23     -0.13304019223598
  24    -0.016558624514238
  25    -0.012700067203765
  26    0.0027297749597147
  27    -0.011016154249688
  28     -0.04893470012771
  29     0.034077812664255
  30      0.13045844044901
  31    -0.016551791467369
  32     0.071433922696777
  33    -0.015708739583822
  34      -0.1193413403818
  35     -0.11266109037853
  36    -0.054800009099843
  37    -0.0048897224889124
  38    -0.043897808763415
  39     0.081244861610796
  40    -0.0061882859150971
  41     0.072968617454042
  42    0.0078649480068347
  43     0.036861402996389
  44       1.0031487875219
  45       1.4809106780792
  46     0.051411993368057
  47      0.22086790485688
  48    -0.071008907812701
  49     -0.72035556720488
  50      -1.0127415335204
  51    -0.038677382924473
  52    -0.038263012072893
  53       0.2602717020075
  54     -0.27304575581004
  55     -0.47743070275906
  56    0.0002092897398577
  57     -0.19545440415663
  58     -0.13024218480887
 Sym= A
 Ene=              13
 Spin= Alpha
 Occup=    0.00000
   1     -0.04080100176502
   2    -0.0045695228925819
   3       2.5473019885417
   4      0.30064077646617
   5    0.0020094372275687
   6    0.0031048681605974
   7       1.7093940994416
   8     0.037599622715645
   9     0.011979941724881
  10    -0.061694604212229
  11    0.0046984230133108
  12    0.0020012930917161
  13       0.1070211639237
  14    -0.00019646076770303
  15      0.16545871949526
  16      0.30523407790906
  17      -1.4380568075602
  18     -0.58934617244948
  19     0.028667719484959
  20     0.018260603484522
  21       3.4543740340888
  22     -0.13534179729292
  23    -0.044645948005854
  24      0.20073333257548
  25      0.01320098493993
  26    -0.0024161208103608
  27      -0.3292040767736
  28    -0.024152954575649
  29     -0.16084076519882
  30     -0.54576718939677
  31     -0.16263344675945
  32     0.013993080573525
  33      0.10168399918619
  34     -0.18996195018634
  35     -0.63712006077436
  36     -0.16217174660688
  37    -0.082142482792371
  38    -0.052468503595804
  39     -0.13141878203203
  40     -0.51826981171047
  41     -0.16157162400402
  42     0.084276546585633
  43    -0.034877177838121
  44    -0.060351985737125
  45      0.30911825315803
  46    -0.020987921317499
  47      0.02978722577562
  48    -0.0084526563816136
  49     -0.07332301544804
  50      0.29996745842083
  51     -0.01662136582246
  52    -0.021711504850331
  53    -0.020206206403038
  54    -0.067041447268309
  55      0.29727666056727
  56    -0.018525722208477
  57    -0.011856912848666
  58     0.026173248027949
 Sym= A
 Ene=              14
 Spin= Alpha
 Occup=    0.00000
   1    0.0025236444732179
   2    0.0073916902081047
   3     0.028469856418114
   4     0.012556315529117
   5    -0.0050472418348112
   6    -0.017184599615359
   7      0.01968267653211
   8    -0.097856207623084
   9     -0.69660820504056
  10    -0.016356643102342
  11     0.034222179079058
  12    -0.010771621241963
  13    -0.00098224754037806
  14     0.018078452526136
  15    0.00054211813648119
  16    0.00093031937892426
  17    0.00096402061042455
  18    0.0026740882214617
  19      0.06964556997342
  20     -0.39225215280128
  21     0.039169382070864
  22    -0.017037650394939
  23       2.9372487866656
  24      0.38745331817087
  25       0.7375802926929
  26     -0.13451505749463
  27      0.18458124168601
  28     0.039774733087503
  29      -1.0347860018842
  30      -1.5434698173044
  31     0.061880672728832
  32     0.024735088022918
  33      0.23012320738538
  34      0.56439232617824
  35      0.75019084151141
  36    -0.039451290601019
  37      0.23225685080664
  38     -0.12131620861928
  39      0.44249823628127
  40      0.76434544144919
  41    -0.013694430854696
  42     -0.16874585775561
  43     -0.12938889095338
  44    -0.0074045151764508
  45     -0.10444877426216
  46      -0.0301474334533
  47    0.0013131300114634
  48     0.072931414969854
  49      0.11030763505673
  50      0.13838550413631
  51    -0.042509508209705
  52     -0.05448379011335
  53     0.012346885396552
  54     -0.10345298577817
  55    -0.025013605749692
  56     0.073258560587313
  57     0.025674658189796
  58    -0.0047944591141959
 Sym= A
 Ene=              15
 Spin= Alpha
 Occup=    0.00000
   1    -0.0039474741831742
   2    -0.0044869162506704
   3      0.13093859844668
   4     0.010911869891648
   5    -0.018999860486774
   6    0.0089916525573313
   7     0.086129685200701
   8     -0.70141873879721
   9      0.11064575795278
  10     -0.01241481375118
  11    -0.011511655144799
  12     0.014153025962737
  13    -0.0031660075142191
  14     0.031816057060235
  15     0.014965486551359
  16     0.028449189758258
  17     -0.11701756159595
  18     -0.03075319153885
  19     -0.40124488019952
  20    -0.054712587454808
  21       0.1604827200748
  22        2.943442324832
  23    0.00095637130599307
  24     -0.10620161966966
  25    -0.011244524036828
  26      -0.4155618634987
  27    -0.065982128313849
  28      0.72585288484675
  29     0.059500214391427
  30    -0.021333760182225
  31    -0.025733600190333
  32     -0.24301575102189