[Molden Format]
made by pyscf v[2.0.1]
[Atoms] (AU)
C   1   6     0.00000000000000     0.00000000000000     0.00000000000000
C   2   6     2.89040035821050     0.00000000000000     0.00000000000000
H   3   1     3.65380793584534     0.00000000000000     1.93990930394644
H   4   1     3.65380793584534    -1.68001073825540    -0.96995465197322
H   5   1     3.65380793584534     1.68001073825540    -0.96995465197322
H   6   1    -0.76340757763484    -1.48605674244297     1.24694966449241
H   7   1    -0.76340757763484     1.82291845791239     0.66348805817456
H   8   1    -0.76340757763484    -0.33686171546942    -1.91043772266697
[GTO]
1 0
 s    8 1.00
                  6665  0.00069158396281299
                  1000  0.0053257961529341
                   228   0.027060721042034
                 64.71    0.10165684614077
                 21.06     0.2745748236174
                 7.495    0.44829431892377
                 2.797    0.28490261071525
                0.5215   0.015194859206082
 s    8 1.00
                  6665  -0.00029326965268655
                  1000  -0.0023180354739745
                   228  -0.011499786038565
                 64.71  -0.046826727009787
                 21.06   -0.12846616875047
                 7.495   -0.30126627246289
                 2.797   -0.25563070233011
                0.5215      1.093793361012
 s    1 1.00
                0.1596                   1
 p    3 1.00
                 9.439   0.056979251590039
                 2.002    0.31320721150073
                0.5456    0.76037674173753
 p    1 1.00
                0.1517                   1
 d    1 1.00
                  0.55                   1

2 0
 s    8 1.00
                  6665  0.00069158396281299
                  1000  0.0053257961529341
                   228   0.027060721042034
                 64.71    0.10165684614077
                 21.06     0.2745748236174
                 7.495    0.44829431892377
                 2.797    0.28490261071525
                0.5215   0.015194859206082
 s    8 1.00
                  6665  -0.00029326965268655
                  1000  -0.0023180354739745
                   228  -0.011499786038565
                 64.71  -0.046826727009787
                 21.06   -0.12846616875047
                 7.495   -0.30126627246289
                 2.797   -0.25563070233011
                0.5215      1.093793361012
 s    1 1.00
                0.1596                   1
 p    3 1.00
                 9.439   0.056979251590039
                 2.002    0.31320721150073
                0.5456    0.76037674173753
 p    1 1.00
                0.1517                   1
 d    1 1.00
                  0.55                   1

3 0
 s    3 1.00
                 13.01   0.033498726389998
                 1.962    0.23480080117413
                0.4446     0.8136829578829
 s    1 1.00
                 0.122                   1
 p    1 1.00
                 0.727                   1

4 0
 s    3 1.00
                 13.01   0.033498726389998
                 1.962    0.23480080117413
                0.4446     0.8136829578829
 s    1 1.00
                 0.122                   1
 p    1 1.00
                 0.727                   1

5 0
 s    3 1.00
                 13.01   0.033498726389998
                 1.962    0.23480080117413
                0.4446     0.8136829578829
 s    1 1.00
                 0.122                   1
 p    1 1.00
                 0.727                   1

6 0
 s    3 1.00
                 13.01   0.033498726389998
                 1.962    0.23480080117413
                0.4446     0.8136829578829
 s    1 1.00
                 0.122                   1
 p    1 1.00
                 0.727                   1

7 0
 s    3 1.00
                 13.01   0.033498726389998
                 1.962    0.23480080117413
                0.4446     0.8136829578829
 s    1 1.00
                 0.122                   1
 p    1 1.00
                 0.727                   1

8 0
 s    3 1.00
                 13.01   0.033498726389998
                 1.962    0.23480080117413
                0.4446     0.8136829578829
 s    1 1.00
                 0.122                   1
 p    1 1.00
                 0.727                   1

[5d]
[7f]
[9g]

[MO]
 Sym= A
 Ene=               0
 Spin= Alpha
 Occup=    1.00000
   1    -0.00012488056123168
   2    0.0001694498025361
   3    0.0023288995384923
   4    0.00031297222577988
   5    -6.2384376700522e-08
   6    -1.2509202175253e-07
   7    0.0011876876699507
   8    -2.9425581667501e-08
   9    -5.1643492841632e-08
  10    9.7870023952053e-05
  11    -1.0664882562358e-08
  12    2.071073842736e-10
  13    -0.00016950815464279
  14    -1.3237771695972e-09
  15       1.0022670228669
  16     0.005467985553499
  17    -0.0088543179866513
  18    0.00021349418082311
  19    -7.8063682314411e-08
  20    -3.2736156178848e-07
  21    0.00079204889624163
  22    -3.4916733073673e-08
  23    -1.5280209236231e-07
  24    8.8886536705407e-05
  25    -7.2870160796648e-09
  26    3.5659139841596e-09
  27    -0.00015398780744045
  28    -2.3598511485278e-10
  29    0.00047749362186378
  30    0.0012587474951196
  31    8.890200122978e-05
  32    7.2432466395079e-07
  33    0.00036953334492189
  34    0.00047796148268334
  35    0.0012589354372802
  36    8.8886131845994e-05
  37    -0.00032036364858042
  38    -0.00018413139389523
  39    0.0004778521704425
  40    0.0012588944878222
  41    8.8889948321786e-05
  42    0.00031964109365248
  43    -0.00018539514588858
  44    -9.6072127604254e-05
  45    0.00011750985120574
  46    4.8287352256795e-05
  47    1.3228835251294e-05
  48    -1.3573359229243e-05
  49    -9.6128938426457e-05
  50    0.00011748981089217
  51    4.8285836153567e-05
  52    -1.8364222418501e-05
  53    -4.6745060594919e-06
  54    -9.5963103320176e-05
  55    0.00011752146377454
  56    4.8291046739779e-05
  57    5.1373401805224e-06
  58    1.8252614994533e-05
 Sym= A
 Ene=               1
 Spin= Alpha
 Occup=    1.00000
   1       1.0022670278348
   2    0.0054678958962917
   3    -0.0088543813234326
   4    -0.0002135932323901
   5    4.4020880909983e-09
   6    1.4071753861869e-07
   7    -0.00079209473105956
   8    4.5128598161246e-09
   9    6.645943830417e-08
  10    8.889883018034e-05
  11    -4.1009683576256e-09
  12    -2.3248871393601e-09
  13    -0.0001539903739674
  14    -4.9428827691673e-09
  15    -0.00012484883463174
  16    0.00016941247941076
  17    0.0023288677017707
  18    -0.00031284772750481
  19    -9.9191773224319e-08
  20    3.3345175114428e-08
  21    -0.0011876298910225
  22    -4.7814347789331e-08
  23    1.2657965421905e-08
  24    9.7872594907036e-05
  25    -5.4212371967163e-09
  26    4.9396004668888e-09
  27    -0.00016951981338285
  28    -4.2142443036569e-09
  29    -9.6014126810726e-05
  30    0.00011751855880513
  31    -4.8286265637785e-05
  32    1.8878394307066e-06
  33    -1.8863781444336e-05
  34    -9.5966920425633e-05
  35    0.00011755559989334
  36    -4.8287915029436e-05
  37    1.5390655481298e-05
  38    1.1071707648631e-05
  39    -9.6116708911255e-05
  40    0.00011748982542516
  41    -4.8282963388621e-05
  42    -1.727668410487e-05
  43    7.7903682262741e-06
  44    0.00047782617100045
  45    0.0012588898503662
  46    -8.8893813936223e-05
  47    -0.00028353169592566
  48    0.00023696721647679
  49    0.00047780938960871
  50    0.0012588961729957
  51    -8.8894305439865e-05
  52    0.00034698497533303
  53    0.00012706965360191
  54    0.00047763785377406
  55    0.0012588159889444
  56    -8.8900087329686e-05
  57    -6.3452596824336e-05
  58    -0.00036403968171184
 Sym= A
 Ene=               2
 Spin= Alpha
 Occup=    1.00000
   1     -0.01335381515183
   2      0.18315641747326
   3      0.10970175365172
   4     -0.12439275360957
   5      0.32485970781736
   6       0.1187676957139
   7    -0.061113627685006
   8      0.15410534588164
   9     0.056170772007923
  10    -0.0083010946252458
  11    -0.0048259428841467
  12      0.01190215341401
  13    -0.013264180155773
  14    -0.013169103044715
  15    -0.0024500486832616
  16    -0.020540290762095
  17    -0.014558237402035
  18     0.025112174814513
  19    0.0013184533642659
  20    0.00091822172306385
  21     0.014713002625507
  22    -0.0071709329901602
  23    -0.00069818059185033
  24    -0.0039436434434534
  25    -0.0057815775732201
  26    0.0029176636131289
  27    0.0028352730437485
  28    -0.015584048341005
  29    -0.0085164508829667
  30    -0.0089472840020481
  31    0.0019570055216237
  32    -0.00053345242341492
  33    -0.00056031082972642
  34     0.023852843770686
  35     0.042577353539505
  36    0.00033601179393378
  37    -0.0011026328393614
  38    -0.00063679078563061
  39    -0.015714877403535
  40    -0.017870677811782
  41    0.0018368247084359
  42    -0.0008888662931691
  43    9.2139147526988e-06
  44    -0.020013768958685
  45     -0.03731843795625
  46    -0.0025574833926064
  47     0.011962031714267
  48    0.0019891334363162
  49       0.4310535891822
  50      0.16158776146272
  51      0.01286591857023
  52    -0.028097549815444
  53    -0.010149939106557
  54    -0.020158416219552
  55    -0.037594906585207
  56    -0.0025456721113382
  57       0.0104004058263
  58    0.0060770426791285
 Sym= A
 Ene=               3
 Spin= Alpha
 Occup=    1.00000
   1    -0.0024503042216088
   2    -0.020540593406501
   3     -0.01455826539528
   4     -0.02510953006403
   5    0.00041219297520595
   6    0.0015520571235375
   7    -0.014711749719702
   8    0.0017965561265786
   9    -0.0069777310592057
  10    0.00073577250231522
  11     0.016621669905933
  12    0.0009509785262587
  13    0.0055371710221818
  14    0.00010306707836796
  15    -0.013353160490267
  16      0.18315747425353
  17      0.10970254080878
  18      0.12439076941909
  19    0.00050136059242538
  20      0.34588925512721
  21     0.061112685203802
  22    7.8400772912681e-05
  23      0.16402323522656
  24     0.019462887421431
  25     0.014025524849798
  26    0.0002333316601878
  27    0.0027655079875175
  28    3.0985993805239e-05
  29      0.43105355288129
  30      0.16158765339528
  31    -0.012865976056984
  32    7.225203530668e-05
  33    -0.029874543649025
  34    -0.020162210264014
  35    -0.037596756093892
  36    0.0025457430013453
  37    0.0021532881582387
  38     0.011851506627971
  39    -0.020010373877877
  40    -0.037317157209649
  41    0.0025573099842349
  42    -0.0022222003431939
  43     0.011921111739773
  44    -0.015716326909225
  45    -0.017870958939014
  46    -0.0018368083750097
  47    0.0003125423057974
  48    -0.00083203109330234
  49    -0.0085178439135246
  50    -0.0089481809676968
  51    -0.0019569926640307
  52    -0.00034397954153138
  53    -0.00069291445007851
  54       0.0238526481542
  55     0.042577379984016
  56    -0.0003359596416038
  57    -0.00022127094174128
  58    -0.0012539948418468
 Sym= A
 Ene=               4
 Spin= Alpha
 Occup=    1.00000
   1    -0.0024500768508606
   2    -0.020540940181324
   3    -0.014558831096743
   4    -0.025115115005741
   5     0.001136824096414
   6    -0.0011373486913961
   7    -0.014714393853137
   8    -0.0069417114696012
   9    0.0019309733399875
  10    -0.0029748403469106
  11    -0.0083999732796806
  12    -0.0034249146279149
  13    0.0033943642337765
  14     0.014343226016182
  15    -0.013353942682458
  16       0.1831558473032
  17      0.10970120966859
  18      0.12439573262143
  19      0.29929660401743
  20     -0.17338001095591
  21     0.061115036891682
  22      0.14200837794703
  23    -0.082079989483496
  24    -0.0040539543881429
  25    -0.007039435358508
  26    -0.015911248955521
  27    -0.010812345455426
  28     0.012130959295518
  29    -0.020162077370377
  30     -0.03759611757624
  31    0.0025458709424167
  32    0.0091870133462438
  33    -0.0077905441169114
  34    -0.020008040066375
  35    -0.037316128229501
  36    0.0025573652246287
  37     0.011435215766576
  38    -0.004036000009849
  39      0.43105362752341
  40      0.16158781641154
  41    -0.012865839387428
  42    -0.025908286755498
  43     0.014874670881735
  44     0.023852646800493
  45     0.042577359118418
  46    -0.00033610000940866
  47    -0.00097538011241798
  48    0.00081848397290463
  49    -0.015716799609411
  50    -0.017870990814443
  51    -0.0018369620587597
  52    -0.00087682235573134
  53    0.00014522924568445
  54    -0.0085123786479178
  55    -0.008945850333747
  56    -0.0019569444969889
  57    -0.00042804155808002
  58    0.00064469358748382
 Sym= A
 Ene=               5
 Spin= Alpha
 Occup=    1.00000
   1    -0.013353388179013
   2      0.18315570076279
   3      0.10970119541905
   4     -0.12439428897281
   5    -0.059574719538733
   6     -0.34072040569207
   7    -0.061114327098699
   8    -0.028407583492374
   9     -0.16154450370649
  10     0.018579704712969
  11     0.013817933250713
  12    0.0060183172317785
  13    0.0022552654187243
  14    0.0024049957398258
  15    -0.0024503848785047
  16    -0.020542086549733
  17    -0.014559442095807
  18     0.025113185925213
  19    0.00013190122696559
  20    -0.0015969640860967
  21     0.014713455600597
  22    0.0029789045753787
  23    0.0065611696069052
  24    0.0008398692256965
  25     0.016387122827757
  26    0.00027140189522645
  27    0.0055969158643791
  28    0.0027848994955344
  29     0.023855724672921
  30     0.042578879779011
  31    0.00033594829594077
  32    -2.8411182302324e-07
  33    0.0012732153735301
  34    -0.015714110111942
  35    -0.017870117947732
  36    0.0018368342009606
  37    0.00045231702926459
  38    0.00076531177839048
  39    -0.0085217387668305
  40    -0.0089492985752024
  41    0.0019572212874444
  42    -0.00021822038591506
  43    0.00074201821635409
  44    -0.020158110254716
  45    -0.037595124126483
  46    -0.0025457022913921
  47    6.2699221254828e-05
  48    -0.012045576097461
  49    -0.020013966642235
  50    -0.037318265911379
  51    -0.0025575304535615
  52    -0.0042583449213762
  53    -0.011353974743962
  54      0.43105390697512
  55      0.16158825545283
  56      0.01286589646138
  57    0.0052586522554623
  58     0.029408147320505
 Sym= A
 Ene=               6
 Spin= Alpha
 Occup=    1.00000
   1    -0.0024504097178438
   2    -0.020539916330422
   3     -0.01455794517915
   4    -0.025111357018033
   5    -0.0015489859446945
   6    -0.00041667718163559
   7    -0.014712599939499
   8    0.0051452434876763
   9    0.0050458483369645
  10    -0.0044017327302633
  11    -0.0082216338909109
  12    0.0024740214777439
  13    0.0025708216145208
  14    -0.014446459034035
  15    -0.013354126726528
  16      0.18315544395986
  17       0.1097012239214
  18      0.12439127887913
  19     -0.29980137256603
  20     -0.17250962688799
  21     0.061112917929431
  22     -0.14208838648069
  23    -0.081943384637803
  24    -0.004404085009163
  25    -0.0069860098369847
  26     0.015678102287416
  27    -0.011014124180741
  28    -0.012162086296924
  29    -0.020010662884586
  30    -0.037317156482017
  31     0.002557350609516
  32    -0.0092129428999961
  33    -0.007884974116493
  34      0.43105391870567
  35      0.16158830187951
  36    -0.012865960195258
  37      0.02583590795203
  38     0.014999851149328
  39    -0.020164727112772
  40    -0.037597530000799
  41    0.0025458556098181
  42     -0.01134018890129
  43    -0.004061055985262
  44    -0.0085165601599478
  45    -0.008947895322818
  46    -0.0019569855221935
  47    0.0007722194374137
  48    4.8542989968903e-05
  49     0.023855386490031
  50     0.042578562016621
  51    -0.00033590149889348
  52    0.0011964463673994
  53    0.00043536255268128
  54    -0.015717597205008
  55    -0.017871607182969
  56    -0.0018368854113143
  57    0.00056431331433759
  58    0.00068666336355345
 Sym= A
 Ene=               7
 Spin= Alpha
 Occup=    1.00000
   1    -0.013353810916817
   2      0.18315527662474
   3       0.1097009931447
   4     -0.12439326058264
   5     -0.26528587596453
   6      0.22195359452721
   7     -0.06111385553839
   8     -0.12569813983344
   9      0.10537409078833
  10    0.00072635851537353
  11    -0.0089918811717477
  12    -0.017920512620417
  13    -0.008052232732503
  14     0.010764081146264
  15    -0.0024501624846312
  16    -0.020540474791242
  17    -0.014558413265191
  18     0.025113148272729
  19    -0.0014516658340579
  20    0.0006817444411403
  21     0.014713448383885
  22    0.0041914209187514
  23    -0.0058615895240121
  24    -0.0035368522689118
  25    -0.010605465181764
  26    -0.0031890053500562
  27    0.0030700151291205
  28     0.012799138716461
  29    -0.015715536681337
  30    -0.017871009839896
  31    0.0018368695831893
  32    0.00043653905994959
  33    -0.00077436530370414
  34    -0.0085178825687227
  35    -0.0089478908131737
  36    0.0019570771069066
  37    0.00075194761116556
  38    -0.00018192067231497
  39     0.023855602811445
  40     0.042578625565786
  41    0.00033593909089169
  42    0.0011026832419542
  43    -0.0006364309059942
  44      0.43105390487549
  45      0.16158829008234
  46     0.012865911633879
  47     0.022838856217265
  48     -0.01925818762051
  49    -0.020158916479601
  50    -0.037595124879484
  51    -0.0025457089515051
  52    -0.010463042728481
  53    0.0059685333884052
  54    -0.020014754733363
  55    -0.037318748096678
  56    -0.002557539283957
  57    -0.0077036838411373
  58    0.0093647803346454
 Sym= A
 Ene=               8
 Spin= Alpha
 Occup=    1.00000
   1     0.010940883925599
   2      -0.1988731213486
   3     -0.14951823148563
   4     -0.36546876833154
   5    9.0859228518131e-07
   6    9.7697005707375e-07
   7     -0.16964585830297
   8    4.964537405429e-07
   9    4.1793010313009e-07
  10     0.015949352474565
  11    8.2404419241304e-08
  12    4.7968767982999e-08
  13    -0.027625188322229
  14    -1.5169958062875e-07
  15     0.010941119763786
  16     -0.19887171174539
  17     -0.14951737606853
  18      0.36546945472555
  19    -2.3931437321368e-06
  20    2.5218412047593e-06
  21      0.16964617964019
  22    -1.1609219154657e-06
  23    1.1775757355228e-06
  24     0.015949539291129
  25    5.5634786728325e-08
  26    1.3487337473079e-07
  27    -0.027625174348022
  28    -1.4089943535553e-07
  29     0.022185341774659
  30     0.037385665154139
  31    0.0091966337236768
  32    -1.4157833407339e-06
  33    0.0013773404467079
  34     0.022184027298866
  35     0.037385259388622
  36    0.0091966769249498
  37    -0.0011922631020479
  38    -0.00068978318930093
  39     0.022180302707476
  40     0.037383500566636
  41    0.0091968039776598
  42    0.0011937145734616
  43    -0.00068760996136743
  44     0.022182005784649
  45     0.037384238245422
  46    -0.0091967446218654
  47    -0.0010543742975766
  48    0.00088652786568851
  49     0.022183455507808
  50     0.037385240327022
  51    -0.009196695027812
  52    0.0012948902957438
  53    0.00046988764499825
  54     0.022181505553131
  55     0.037384455306939
  56    -0.0091967570509071
  57    -0.00024051475374873
  58    -0.0013564544068058
 Sym= A
 Ene=               9
 Spin= Alpha
 Occup=    0.00000
   1      -1.0110319388547
   2      -1.9870462476169
   3       6.4190500525616
   4       0.1263005284846
   5     0.025576229439599
   6     0.014096962911443
   7     0.087899234042768
   8    -0.015449008013406
   9    -0.053055640727475
  10    -0.0026341492561407
  11    -0.0046383397695255
  12     0.039440136222882
  13    -0.037452242451236
  14    -0.020734118188103
  15       0.1014979681892
  16      0.12533310286189
  17      -1.9206014222676
  18      0.18307815654331
  19    0.0034469485579886
  20    0.0028643204886206
  21       1.0827874702668
  22      0.01344547014134
  23     0.016105629836773
  24     0.039584318290163
  25    -0.0029578667237757
  26    -0.004112191447321
  27    -0.063395680766865
  28    -0.0035664512073958
  29      0.10450258234589
  30    -0.015686531382065
  31     -0.04770235531204
  32    -0.0020040914726605
  33    0.0043824106780759
  34      0.11379739161912
  35     -0.01056841900892
  36    -0.048127827481586
  37    -0.0020917323061161
  38    -0.0040456019855324
  39      0.10627734052612
  40    -0.017369931843327
  41    -0.045853883802785
  42    0.0043207354946808
  43    -0.0015417471210097
  44     -0.63184852615077
  45     -0.91792449369552
  46    -0.010068193245314
  47    -0.051704648248641
  48     0.054233730389508
  49     -0.67635176944851
  50      -0.9194769010372
  51    -0.020353155335506
  52     0.090818932928482
  53     0.033798770354718
  54     -0.66164430217989
  55     -0.95821142226042
  56    -0.016011429763071
  57    -0.0061739388074333
  58    -0.080445798643942
 Sym= A
 Ene=              10
 Spin= Alpha
 Occup=    0.00000
   1      0.10700989133583
   2      0.13443996985892
   3      -2.0435721457227
   4     -0.18656462501714
   5    -0.0032516101137281
   6    -0.011515433470008
   7      -1.1648085400972
   8    -0.010636495737366
   9    -0.046897081576889
  10     0.042932557640233
  11    -0.016566963090403
  12    -0.0038329021520763
  13    -0.060092097091328
  14    -0.0022501166281974
  15      -1.0198071710772
  16      -2.0032045216349
  17       6.5042658316619
  18     -0.08619770715652
  19    -0.029075396908062
  20     -0.05875002923986
  21     -0.25621214839875
  22     0.020917703198811
  23     0.094400213059932
  24    -0.017857782244475
  25    -0.065824630999709
  26     0.054791511502674
  27     -0.06555737374388
  28    -0.014764140806845
  29     -0.63072893704455
  30     -0.94664681699705
  31     0.027933335064996
  32    -0.011685639993522
  33     0.055636577277535
  34     -0.69285087553116
  35     -0.88157688174912
  36     0.036376834254818
  37    -0.089610696155465
  38    -0.056315842136609
  39     -0.64807355848961
  40     -0.89358026041271
  41     0.022971851355077
  42     0.062920421372532
  43      -0.0546458631082
  44      0.11433039829619
  45    -0.022942221609457
  46     0.049382264991589
  47    -0.0030466949338207
  48    0.0075717745932162
  49      0.12016047597625
  50    -0.027088299929618
  51     0.049929239860827
  52     0.004684244670769
  53    0.0031105581856465
  54      0.10169857448052
  55     -0.03940586782522
  56     0.046478246971205
  57    -0.0034280065325978
  58    -0.0040658612654591
 Sym= A
 Ene=              11
 Spin= Alpha
 Occup=    0.00000
   1    0.0014213810213285
   2    0.0025656686935075
   3    -0.013350789715868
   4    0.0066867085769581
   5     -0.31859727562818
   6    -0.041759991359675
   7    -0.039590720675322
   8       2.8086042500928
   9      0.13499003353274
  10     -0.17016734750263
  11    -0.029611767217848
  12      0.40844730074924
  13     -0.10385373895457
  14      -0.8809217289003
  15    -0.00038749905726254
  16    9.6780134615958e-05
  17      0.02840429945845
  18    -0.0034937604982155
  19    0.0079815006203589
  20    0.0048596589420636
  21    -0.019118259244913
  22     -0.57295516985263
  23     0.032713417866962
  24    0.0095726065817175
  25     0.005082855390915
  26    -0.0074946687100574
  27    0.0072129485050548
  28    -0.065378137183796
  29     -0.01400061354741
  30    -0.065458408172804
  31     0.014863584641633
  32     0.068058834734686
  33    0.0073496204808886
  34    -0.075876295037702
  35      0.03605391419189
  36    -0.080207031769435
  37    0.0045296572063408
  38    -0.031966379149388
  39      0.08770606187434
  40     0.039726861881382
  41     0.065923840603914
  42    0.0013770277848102
  43     0.043249298800786
  44      0.79829547451558
  45       1.0790147663503
  46     0.041385936450942
  47     0.045719354717871
  48     -0.26073784123218
  49       -1.010542450711
  50       -1.420242206498
  51    -0.043000945793736
  52      0.21466795040277
  53      0.14443951057016
  54      0.20551063139571
  55      0.32031000278133
  56    0.0069724267468517
  57     -0.22129508994406
  58     0.084705758975076
 Sym= A
 Ene=              12
 Spin= Alpha
 Occup=    0.00000
   1    -0.018211305486013
   2    -0.035399236578359
   3      0.11966165864651
   4    -0.0063084061192749
   5     0.068274225692741
   6     -0.32271104611898
   7     0.077510631792542
   8     -0.12506950373631
   9       2.8729482719334
  10     -0.45529963714739
  11     -0.81690961670816
  12     -0.17792030558503
  13      -0.2361694439279
  14     0.016657746333076
  15    0.00091911515484558
  16    -0.0017937089798595
  17       -0.085102889877
  18     0.014054352833864
  19    -0.003811692237463
  20    -0.0013335918072204
  21     0.054148094608593
  22    -0.029988417808721
  23     -0.60259119785579
  24      0.01580389257673
  25    -0.046251186323369
  26    0.0093251102444723
  27    0.0012112708004908
  28    -0.005758650969331
  29     0.097955354837931
  30    0.0030070469968757
  31     0.082294418980889
  32    -0.0046415390534818
  33    -0.014100923435334
  34    -0.054218595361615
  35    -0.070932150970204
  36    -0.030632076751067
  37    -0.044703970377026
  38     0.048426773788931
  39    -0.035168773170801
  40     0.048105036652834
  41    -0.054461919398363
  42     0.031295734256418
  43     0.050813483883722
  44      -0.6918902277127
  45      -1.0179877647754
  46     -0.03477353081447
  47     -0.21524152170041
  48    -0.013275389141998
  49     -0.38961264982638
  50     -0.45710407401422
  51    -0.038656070182542
  52       0.1731092018507
  53     -0.17136631036409
  54       1.0738894601523
  55       1.4754031715482
  56     0.069275382509142
  57      0.11670774830914
  58      0.24905354621422
 Sym= A
 Ene=              13
 Spin= Alpha
 Occup=    0.00000
   1    -0.058169645539933
   2    -0.038199521162351
   3       2.6872150679612
   4      0.28431969743514
   5    -0.00092379312808915
   6     0.001757986056321
   7       1.7833007606823
   8      -0.0145525621069
   9     0.027556631420906
  10    -0.055199592373183
  11    0.00028238308788575
  12    -0.0021086977220489
  13     0.094370574065787
  14    0.00045207415343915
  15      0.24374170982604
  16      0.45870251464742
  17      -1.9626159833548
  18      -0.6080218661035
  19    -0.013228838300424
  20     0.022737763891151
  21       3.4516319914081
  22     0.045062665052865
  23      -0.1175293361319
  24      0.14022554280475
  25    -0.020956757200196
  26     0.010695582505491
  27       -0.252189594091
  28    0.0076587869443153
  29    -0.055370168119093
  30     -0.42657348140172
  31     -0.17900910520514
  32    -0.0065434968529544
  33     0.080380047574173
  34     -0.09832349495354
  35     -0.49750621591268
  36     -0.17591125026212
  37    -0.083095415269383
  38    -0.032068417456285
  39     -0.10988500349128
  40     -0.53576921039252
  41     -0.17916525720077
  42     0.078236110207965
  43     -0.03832211349628
  44    -0.083536103570069
  45      0.30006824216647
  46    -0.021707485774619
  47     0.022068588523913
  48    -0.019382849946574
  49     -0.07618367649283
  50       0.3064408582382
  51    -0.023352297006709
  52    -0.027710686878283
  53    -0.013939706475534
  54    -0.072894858904513
  55      0.30252543327118
  56      -0.0265768961926
  57    0.0061146243612103
  58     0.030124144758152
 Sym= A
 Ene=              14
 Spin= Alpha
 Occup=    0.00000
   1    -0.00033068280662114
   2    -0.0026886926263081
   3    -0.046776139219772
   4    -0.0090708709856547
   5    0.0044695785464927
   6    -0.0033347112530355
   7    -0.031254482706277
   8     -0.58282122823216
   9    -0.062404113996536
  10    0.0040360223572018
  11    0.0090459318509925
  12     0.012621421357927
  13    -0.0029368219874001
  14     0.057758709087423
  15    -0.0035716228257554
  16    -0.0067032561493462
  17     0.026002447214813
  18    0.0064596859900486
  19     -0.32976606151722
  20     0.041608481312513
  21    -0.060454407724156
  22       2.8348824512546
  23     0.029673330870483
  24     0.081042483855138
  25     0.028959305697154
  26     -0.46067530049125
  27     0.067953202935109
  28       0.8542811310951
  29    -0.057374928866326
  30    -0.0075446446530598
  31     0.014518815438416
  32     -0.23788389009517
  33     0.023567700933994
  34      0.95727991804219
  35       1.3088463179279
  36    -0.051702850940853
  37       0.1423809944446
  38      0.23543668009718
  39     -0.88501832824012
  40      -1.2711319128324
  41     0.040125982197434
  42       0.1299408476277
  43     -0.19644562549148
  44    -0.060895803282532
  45     0.037857060434656
  46     0.070722664785316
  47     0.022193055895545
  48     0.039263674248577
  49     0.095542147890469
  50     0.019770032442994
  51    -0.075948210390582
  52    -0.0088564673551488
  53    -0.028989669793225
  54    -0.031329872409465
  55    -0.072874708432178
  56    0.0059352366987502
  57     0.065564156011427
  58     -0.02326624961321
 Sym= A
 Ene=              15
 Spin= Alpha
 Occup=    0.00000
   1    -0.0028433384115503
   2    -0.0011734423274971
   3      0.13105017566767
   4     0.016085796779974
   5    0.0028157601923653
   6    0.0073724020938324
   7     0.084471153589779
   8     0.060120207011491
   9     -0.57272859730081
  10    -0.016028169379267
  11     0.061792543946439
  12    0.0019302898067039
  13    -0.0012941795266638
  14    -0.010289747355621
  15     0.022917371091214
  16     0.044271128637773
  17     -0.15932635905891
  18    -0.019487882905648
  19    -0.042138496878757
  20     -0.31491352822926
  21      0.13604059647028
  22    -0.025964715164305
  23       2.8183044698002
  24      0.42255806741114
  25      0.87225457100431
  26     0.099882901283119
  27      0.22217329165085
  28    -0.033251900707494
  29      -1.0706532408888
  30      -1.4906678115177
  31     0.048150750848616
  32    -0.014869198013226
  33      0.27090443095205