[Molden Format]
made by pyscf v[2.0.1]
[Atoms] (AU)
O   1   8     0.00000000000000     0.00000000000000     0.00000000000000
O   2   8     2.75227162082039     0.00000000000000     0.00000000000000
H   3   1     3.06432366844540     0.00000000000000     1.80733789576484
H   4   1    -0.31205204762501     0.31384093202795     1.77988037206198
[GTO]
1 0
 s    6 1.00
             5484.6717   0.001831099805527
             825.23495   0.013950098518422
             188.04696    0.06844509273075
               52.9645    0.23271427528445
              16.89757    0.47019295006289
             5.7996353    0.35852086192309
 s    3 1.00
             15.539616   -0.11077750382508
             3.5999336   -0.14802630511126
             1.0137618     1.1307670390447
 s    1 1.00
             0.2700058                   1
 p    3 1.00
             15.539616   0.070874299543311
             3.5999336    0.33975279781076
             1.0137618    0.72715859531445
 p    1 1.00
             0.2700058                   1
 d    1 1.00
                   0.8                   1

2 0
 s    6 1.00
             5484.6717   0.001831099805527
             825.23495   0.013950098518422
             188.04696    0.06844509273075
               52.9645    0.23271427528445
              16.89757    0.47019295006289
             5.7996353    0.35852086192309
 s    3 1.00
             15.539616   -0.11077750382508
             3.5999336   -0.14802630511126
             1.0137618     1.1307670390447
 s    1 1.00
             0.2700058                   1
 p    3 1.00
             15.539616   0.070874299543311
             3.5999336    0.33975279781076
             1.0137618    0.72715859531445
 p    1 1.00
             0.2700058                   1
 d    1 1.00
                   0.8                   1

3 0
 s    3 1.00
             18.731137    0.03349459952309
             2.8253937    0.23472694665786
             0.6401217    0.81375731841339
 s    1 1.00
             0.1612778                   1
 p    1 1.00
                   1.1                   1

4 0
 s    3 1.00
             18.731137    0.03349459952309
             2.8253937    0.23472694665786
             0.6401217    0.81375731841339
 s    1 1.00
             0.1612778                   1
 p    1 1.00
                   1.1                   1

[5d]
[7f]
[9g]

[MO]
 Sym= A
 Ene=               0
 Spin= Alpha
 Occup=    2.00000
   1      0.99545479713239
   2     0.022859159319935
   3    -0.0068574473710832
   4    0.0007120667141095
   5    7.9137209351092e-05
   6    0.0011232815822083
   7    -0.0026796398769748
   8    -0.00032819980952443
   9    -0.0014719018907916
  10    0.00065239219238514
  11    -0.0001923607458294
  12    6.5780113646027e-05
  13    -0.00075171801397507
  14    -3.0155303521692e-05
  15    -7.908786903914e-06
  16    -0.00057190125574866
  17    0.0028102889317395
  18    -0.00019725845264394
  19    1.9008937850542e-05
  20    6.4820964126467e-05
  21    -0.0016985906774758
  22    3.195887448114e-05
  23    0.00034862967894766
  24    8.1582705069901e-05
  25    -1.0403457404617e-05
  26    -8.4154303564502e-06
  27    0.00010344843282206
  28    -7.0011933072689e-06
  29    -0.00043875333185364
  30    8.1651247605331e-05
  31    -3.4883351012031e-06
  32    -4.1012954568689e-06
  33    7.7519232943989e-05
  34    -0.00044830240905546
  35    0.0012331263078362
  36    -5.6040536914954e-05
  37    0.00019862872737238
  38    0.0011523804290075
 Sym= A
 Ene=               1
 Spin= Alpha
 Occup=    2.00000
   1    -7.8774240085669e-06
   2    -0.00057200162723064
   3    0.0028100949635091
   4    0.00019712800886392
   5    -6.7348572062804e-06
   6    6.7144893514753e-05
   7    0.0016984533073794
   8    3.0205090731812e-05
   9    0.00034888773553352
  10    7.2699378982479e-05
  11    1.1422042499122e-05
  12    4.9774268806565e-05
  13    9.8323062490575e-05
  14    -5.3894729118745e-06
  15      0.99545427040876
  16     0.022860409197055
  17    -0.0068560438678481
  18    -0.00071158523372021
  19    0.00010310060748414
  20    0.0011189578751605
  21    0.0026800098754554
  22    5.750262960716e-05
  23    -0.0015072171436316
  24    0.0006619622260405
  25    0.00019471352916065
  26    2.3614566456761e-06
  27    -0.00074618434081804
  28    3.889648409355e-06
  29    -0.00044849438437128
  30    0.0012328849867992
  31    5.605721088438e-05
  32    4.0395476236365e-06
  33    0.0011693476343858
  34    -0.00043859803895257
  35    8.1787968246762e-05
  36    3.467612811071e-06
  37    1.7528173523206e-05
  38    7.5622376473359e-05
 Sym= A
 Ene=               2
 Spin= Alpha
 Occup=    2.00000
   1    0.00031403257849235
   2    -0.0005730800529011
   3    -0.0007050511414626
   4    -0.0027844832430315
   5    -0.035147222253633
   6    0.0019883235436075
   7    -0.0027343729963061
   8    -0.055002525632665
   9    0.0023447363244219
  10    -0.00040812033053214
  11    -0.00010477108624219
  12    -0.00051580446279573
  13    0.00026782907746181
  14     0.014303944889388
  15    -0.0086341196159058
  16     0.018643118432146
  17     0.025159587574866
  18    0.0077762554425149
  19       0.6697229618274
  20    -0.014841162540649
  21    0.0050474723319461
  22      0.48328106936149
  23    -0.0081816215408925
  24    -0.00075836240166753
  25    7.7066052853009e-05
  26     0.024431629423621
  27    -0.00058982942744093
  28    -0.0087457996581154
  29    -0.0040409922992438
  30    -0.0047703847026147
  31    0.00033111365718312
  32     0.021862238550847
  33    -0.00019326499818261
  34    -0.0045432483221784
  35    -0.0010725410752701
  36    0.0003440707914563
  37    -0.001388439313672
  38    0.00019738039646925
 Sym= A
 Ene=               3
 Spin= Alpha
 Occup=    2.00000
   1    0.0086547451617128
   2     -0.01864252152443
   3    -0.025159587382129
   4    0.0077762266990272
   5      0.66212549915101
   6     -0.10168055373143
   7    0.0050473838033909
   8      0.47735965623874
   9    -0.075863646606786
  10    -0.006527934898687
  11    -0.0014428037468377
  12     0.023283714369131
  13    -0.0036169387677973
  14     0.008626312577714
  15    -0.00031403144788798
  16    0.00057306568158923
  17    0.0007050994899432
  18    -0.0027844763406793
  19    -0.034958531321061
  20    0.0041451389574491
  21    -0.002734395737172
  22    -0.054574076106043
  23    0.0072419846320521
  24    0.00054943613207568
  25    0.0023806773210283
  26    -0.00040961511928044
  27    -0.00018623773002705
  28    -0.014104828963806
  29    0.0045432443358273
  30    0.0010725506122899
  31    0.00034407162428506
  32    -0.0014016208344245
  33    4.6719386722017e-05
  34    0.0040409621467551
  35    0.0047703847003256
  36    0.00033111082904666
  37     0.021563666301546
  38    -0.0036059866631975
 Sym= A
 Ene=               4
 Spin= Alpha
 Occup=    2.00000
   1     -0.11190012920353
   2       0.2469949517163
   3      0.17604688093971
   4     -0.06878774793566
   5     0.075366490634466
   6      0.42083229685532
   7    -0.016628954486038
   8     0.043460656780942
   9      0.24541614190919
  10     0.026167501537915
  11    0.0023757513766004
  12    0.0075152974736556
  13    -0.0023904471181189
  14    0.00024465655886017
  15    0.0040726957163838
  16    -0.011796912537899
  17    -0.025060179833085
  18     0.029865217337484
  19    -0.0028613501799549
  20    -0.019244855333971
  21     0.039348738033183
  22    -0.0054354034482953
  23    -0.025512157007678
  24    -0.001829588847019
  25    -0.0092399884379686
  26    0.00034861301230365
  27    0.0029662313029933
  28    -0.001634496521063
  29    -0.014462692284596
  30    -0.014499624712049
  31    -0.00019253454916052
  32    1.5006976756257e-05
  33    0.00092185827694225
  34      0.31050250041314
  35      0.11827907279278
  36    0.0066932094039091
  37    -0.0060666061929076
  38    -0.032879729283012
 Sym= A
 Ene=               5
 Spin= Alpha
 Occup=    2.00000
   1    0.0040726825461231
   2     -0.01179691134902
   3    -0.025060176045981
   4    -0.029865223171625
   5    -0.00052395764365544
   6    -0.019449356741494
   7    -0.039348741769477
   8    0.00092268544359038
   9    -0.026068421755381
  10    -0.0017210367885506
  11    0.0093834393881758
  12    -0.00036225461865043
  13    0.0030289033927458
  14    -5.1577324008982e-06
  15     -0.11190010805183
  16       0.2469949459211
  17      0.17604687425899
  18     0.068787751563768
  19    -0.0011447410627158
  20      0.42752616637434
  21     0.016628956704601
  22    -0.00018432451253344
  23      0.24923458550605
  24     0.027272372755018
  25    -0.0023821422795327
  26    0.0002799050336476
  27    -0.0017525500235229
  28    -0.00017160516447993
  29      0.31050250179835
  30      0.11827907474614
  31    -0.0066932093046183
  32    0.00026493580157005
  33    -0.033433667345803
  34    -0.014462694815271
  35    -0.014499626100023
  36    0.00019253435471711
  37    0.00014529997753158
  38    0.00091045929442533
 Sym= A
 Ene=               6
 Spin= Alpha
 Occup=    2.00000
   1      0.01049001972862
   2    -0.026353616119721
   3    -0.052786721447327
   4    -0.047011495644335
   5    -6.5671439446243e-06
   6     0.013126060120678
   7    -0.049932795193512
   8    -0.00063246410463741
   9     0.014395287350513
  10    -0.0022566850393008
  11    -0.010852944409997
  12    7.4187876984775e-05
  13    0.0028664451062729
  14    -0.0010607188698211
  15     -0.19011779456653
  16      0.44044949818473
  17      0.51673789834367
  18      0.16831826690627
  19    -0.028999396826194
  20     -0.34823709057201
  21      0.12472654128252
  22    -0.021137998579464
  23     -0.22752697306113
  24    -0.013991246595705
  25     0.010616673214809
  26    -0.0010508118160278
  27    -0.0062387390407896
  28    0.00054073517929784
  29    -0.072630484676991
  30    -0.090971002854548
  31    0.0061722306439436
  32    -0.0010609345903424
  33    -0.0058171977771466
  34     0.016679824958772
  35     0.030106297192655
  36    -0.003522066817924
  37    -0.00021237341265881
  38    -0.00090963738477659
 Sym= A
 Ene=               7
 Spin= Alpha
 Occup=    2.00000
   1     -0.19011407600801
   2      0.44044958711762
   3      0.51673787948794
   4     -0.16831826367639
   5    -0.031912088620032
   6     -0.34798225130362
   7     -0.12472655054834
   8    -0.018692912606344
   9     -0.22774088917717
  10    -0.013506741952307
  11    -0.010549279924872
  12    -0.0042236344809892
  13    -0.0059590143077964
  14    -0.0013110483284462
  15     0.010490038611343
  16    -0.026353630816851
  17    -0.052786725045019
  18     0.047011490057309
  19    0.0022857896883076
  20     0.012925508933241
  21     0.049932785705954
  22    0.0031225834380215
  23     0.014066766966993
  24    -0.0022074933844783
  25     0.010872254844492
  26    -0.00024794877824985
  27    0.0028948464066398
  28    0.00083999379006741
  29     0.016679820903492
  30     0.030106298347172
  31    0.0035220666140085
  32    5.1190354416759e-05
  33    -0.00093269545966476
  34    -0.072630490965824
  35     -0.09097100142822
  36    -0.0061722309203115
  37    3.4665674474363e-05
  38    -0.0059130451748314
 Sym= A
 Ene=               8
 Spin= Alpha
 Occup=    2.00000
   1     -0.05790530629294
   2      0.12032758449159
   3     0.068257925133883
   4      0.40513057984399
   5    -0.001003666931369
   6    -0.0095801721671264
   7      0.25378573685367
   8    0.0022636242006489
   9      0.01546908413457
  10    -0.021272700994181
  11     0.016550458461348
  12    -0.00088068393874963
  13      0.03343833223361
  14     0.002479515252465
  15    -0.057905268016678
  16       0.1203275891968
  17     0.068257927877492
  18     -0.40513057924266
  19    -0.00067516562463041
  20    -0.0096089075234366
  21     -0.25378573687604
  22    0.00045694016723961
  23     0.015627151250829
  24    -0.021444585890994
  25    -0.016729583039496
  26    0.00024492928135971
  27     0.033339094125861
  28    -0.00043211090349411
  29    -0.032109672715673
  30    -0.048879050302414
  31    -0.010130868942978
  32    -0.00010879509954006
  33    -0.0010947436431863
  34    -0.032109676672446
  35    -0.048879051876666
  36     0.010130868861885
  37    -8.2958074051738e-05
  38    -0.0010970036815004
 Sym= A
 Ene=               9
 Spin= Alpha
 Occup=    0.00000
   1     0.016192503895496
   2      -1.6206098817647
   3       3.3386654685528
   4      0.25486205204446
   5    -0.020779988856231
   6     0.028856525980368
   7      0.10580336981986
   8      0.23333913638319
   9       1.1530947531792
  10      0.38448995990012
  11     -0.13433908770244
  12      0.16620030490243
  13      0.29926242627875
  14    -0.033270005850895
  15     0.033334909355251
  16      0.16631881508899
  17     -0.90927493790648
  18     0.074398944039628
  19    -0.0035095898956594
  20    -0.014393822404017
  21      0.59638116186814
  22    -0.017382926632249
  23     -0.20399434725664
  24     0.044082069183335
  25      0.05753264079617
  26    -0.00037421572549029
  27     -0.16718747568881
  28     0.010828602537528
  29       0.1282529308107
  30      0.14667826690827
  31    -0.041929880619773
  32    0.0061275687382274
  33    -0.0095093265718084
  34     -0.91110756997929
  35      -1.2135252941529
  36    -0.060296938531951
  37     0.057046005283463
  38      0.32454306508582
 Sym= A
 Ene=              10
 Spin= Alpha
 Occup=    0.00000
   1     0.031107075496366
   2      0.16451669457199
   3     -0.87337299146203
   4    -0.064384900205178
   5    0.00061076941999399
   6    -0.013652200459468
   7     -0.57104019953259
   8    -0.020835933716142
   9     -0.19439053590227
  10     0.040273491636181
  11    -0.053506766461414
  12    -0.014788599948636
  13     -0.15298218863717
  14    -0.00060894760948472
  15     0.017409036553373
  16      -1.6194415841424
  17       3.3200099080533
  18     -0.25540200222048
  19     0.017282062084142
  20     0.041309860340336
  21     -0.07816038340297
  22    -0.019402544240993
  23       1.1626857994044
  24      0.43372643588451
  25      0.16771892849311
  26    0.0024317828090105
  27      0.25385541748712
  28    -0.014128022469005
  29     -0.91995561974681
  30      -1.2172746294243
  31     0.057438015994153
  32    0.00080253846821922
  33      0.33908197894056
  34      0.12456174611119
  35      0.14641130568893
  36     0.040627396467825
  37    -0.0074165518159445
  38    -0.0087683268016923
 Sym= A
 Ene=              11
 Spin= Alpha
 Occup=    0.00000
   1    0.00097275628487311
   2     0.031514654755998
   3    -0.0076928732072795
   4    -0.0062003692881959
   5    0.0053335996458986
   6     0.018963205666954
   7     -0.18981095356134
   8     0.027699936516467
   9     0.023465278291464
  10    0.0079932084476221
  11    -0.008581779247263
  12    0.0057495036642865
  13    -0.013222914114667
  14    0.00011371893473679
  15    0.0057419717444224
  16    -0.029289607981604
  17     -0.38453604914785
  18     0.023324292160814
  19    0.0012547270888497
  20     0.027058607399299
  21    -0.095609576506863
  22    0.0086590133527294
  23     -0.07780853481559
  24      0.11257166206368
  25      0.12011770512888
  26     0.007161023749949
  27     0.043048106606582
  28    0.0015837562787946
  29      -1.0597876195668
  30       1.6314828944552
  31     -0.47112358139381
  32    -0.028456192111342
  33    -0.081231922732421
  34    -0.037271357011456
  35      -0.3911496475315
  36    -0.037924853620063
  37    0.0053456897588727
  38     0.020026476484133
 Sym= A
 Ene=              12
 Spin= Alpha
 Occup=    0.00000
   1     0.017718679184936
   2    -0.053647434576849
   3     0.052234100719622
   4      0.05065384265139
   5    -0.036970407657256
   6     -0.21695970727068
   7    -0.067220311425618
   8    -0.019773759366782
   9     -0.15979293768204
  10     -0.26923564586549
  11      0.14418067250342
  12    -0.084102599392298
  13    -0.035645243675146
  14     0.023975002317814
  15    -0.0015169968739627
  16    -0.027374130795691
  17     0.027609510601708
  18    -0.0099460906938168
  19    0.0032474575647531
  20    -0.013190599573115
  21     -0.17807734477259
  22     0.024356246399998
  23    -0.0023230486583076
  24    -0.0044174426230535
  25    -0.017289358399463
  26    0.0052465390001477
  27     0.008099676754602
  28    -0.0033304523533077
  29     0.031642143735939
  30      0.35248817003223
  31    -0.037698189839294
  32    0.00072277649267266
  33    -0.019140523672931
  34       1.3181807972878
  35      -1.4034686626922
  36     -0.28443871356698
  37     -0.10235246882212
  38     -0.42245803766926
 Sym= A
 Ene=              13
 Spin= Alpha
 Occup=    0.00000
   1    0.0029804701541048
   2    -0.014254290067758
   3    -0.011166402127373
   4    -0.0033210961552086
   5    0.0033673700600918
   6     0.030949981522382
   7     0.020795117027179
   8    -0.001077050364376
   9     0.020121498025584
  10    0.0011697830475229
  11    0.0028626919940454
  12    -0.00093731156674377
  13    -0.0013117928933462
  14    3.0038234532724e-05
  15     0.088484180155795
  16     -0.42050145649007
  17     -0.34346495631936
  18     -0.14236389325601
  19    0.0013728068380972
  20     -0.61368294467799
  21    -0.047983845549228
  22    -0.00024378902749982
  23     -0.39513084376414
  24    -0.089971470314486
  25    -0.015141689237544
  26    -0.00056479342958453
  27    -0.0030079617614007
  28    -1.3330102443275e-05
  29      0.87963280272203
  30       0.5570475854898
  31    -0.021791846901714
  32    0.00058544614133539
  33    -0.075754023437895
  34    -0.050243188663811
  35    -0.012557514564016
  36    0.0064863156998959
  37    -0.00060409350595476
  38    -0.0028648605812224
 Sym= A
 Ene=              14
 Spin= Alpha
 Occup=    0.00000
   1    -0.043255108160519
   2     -0.14545783786751
   3       1.3782083497329
   4      0.16384462789976
   5    0.0012106875809991
   6     -0.01171502187993
   7       1.0193519197121
   8     0.027490977898985
   9     0.099643985082454
  10    -0.099928557464681
  11     0.039555218413852
  12    0.0096508744138847
  13      0.21785509791682
  14     0.017724743786082
  15     0.039567559835349
  16      0.56397511825809
  17      -1.8043567347707
  18     -0.74403448849023
  19     0.039399747828263
  20      0.36897816084834
  21       1.9071237862524
  22    -0.055898104634791
  23     -0.74919951108997
  24      0.14340397756489
  25     -0.13562662592158
  26     0.017149437444535
  27     -0.19038606787238
  28      0.10430721095375
  29       0.3302671456356
  30      0.19020535506325
  31     -0.11095897244495
  32    -0.002513930548067
  33    -0.020026333521533
  34     -0.10100784619573
  35      0.16639632705933
  36    -0.013524142770826
  37    -0.0032488407520902
  38     -0.01483446083324
 Sym= A
 Ene=              15
 Spin= Alpha
 Occup=    0.00000
   1    -0.030963609961113
   2      0.43823846368154
   3     -0.41841104032821
   4      0.22279712670163
   5    -0.0093982169287695
   6     -0.72064115143235
   7      -1.0521233775482
   8      0.11683075324011
   9       1.5181534145702
  10      0.33355979344613
  11      0.31057264519735
  12     0.050174072775022
  13     -0.21435480166692
  14    -0.031732090741868
  15    -0.026108366593512
  16    -0.053293011684988
  17      0.64024681437551
  18     -0.10478537090202
  19    -0.0015755914283537
  20    -0.050850025397008
  21     -0.66036742733234
  22    -0.0045085022138462
  23     -0.43809243622782
  24      -0.1288480087587
  25      0.12492839469099
  26      0.00107866193591
  27      0.14186105723136
  28    0.0030242632307043
  29       0.1096118114521
  30      0.25164584872867
  31     0.010439758278684
  32     0.002642907091267
  33     -0.05036961969826
  34     -0.49099928850628
  35     -0.67148348997924
  36    -0.040595054320264
  37     0.031055796610588
  38     0.094123498774111
 Sym= A
 Ene=              16
 Spin= Alpha
 Occup=    0.00000
   1    -0.038953910570664
   2     -0.57516385592411
   3       1.8185659758909
   4     -0.74766722675252
   5     -0.02068648264383
   6     -0.36543514626292
   7       1.9202873896663
   8      0.06911176489732
   9      0.73950009091629
  10     -0.14648017416763
  11    -0.096374455241215
  12    0.0047877588405299
  13      0.18082420239081
  14      -0.1206946437499
  15     0.043399175716779
  16      0.14719343451715
  17      -1.3876616618844
  18      0.16392180070351
  19    0.0030829241438483
  20     0.010850377482312
  21       1.0263541862752
  22     0.010126088268953
  23     -0.10437663423467
  24     0.098022075749712
  25     0.044117178358593
  26    0.0014534534452602
  27     -0.21917929451599
  28    -0.010288225027609
  29      0.10229667375465
  30     -0.16794042248902
  31    -0.014301783107867
  32    -0.00064910018470673
  33     0.015221600568011
  34     -0.32661815933394
  35     -0.18760223205439
  36     -0.11561776747396
  37    0.0011269294125465
  38     0.018049177537674
 Sym= A
 Ene=              17
 Spin= Alpha
 Occup=    0.00000
   1    -0.060887279238605
   2      0.21854346191679
   3      0.92135800142959
   4    -0.067503496864365
   5     0.085154306040821
   6      0.47868193238813
   7     -0.10152453094605
   8      0.11204710741683
   9       0.6123368133041
  10      0.38594530325241
  11    -0.048432413342934
  12      0.12161776025075
  13    -0.020910786515705
  14    -0.0094335689110504
  15    0.00097696944140689
  16    -0.016298709713041
  17     -0.04383788485413
  18     0.007300959964773
  19    -0.0028803991157097
  20    -0.019903368675376
  21      -0.0696793986718
  22    0.0013824230384536
  23    -0.070963166693821
  24    -0.015910479692382
  25     0.019972732895159
  26    0.0010897227020813
  27     0.013467416813373
  28    0.0040338761655019
  29      0.02244650696674
  30      0.17505369479218
  31    -0.0081489063980044
  32    0.0031015957456075
  33    -0.0079924523681662
  34     -0.44461925416001
  35     -0.91021813647419
  36     -0.53554190190724
  37      0.21787470961708
  38       1.3179491519483
 Sym= A
 Ene=              18
 Spin= Alpha
 Occup=    0.00000
   1    -0.0086400012665732
   2     0.025170196317904
   3     0.077869270766085
   4    -0.045991780364848
   5     -0.71240269567807
   6    -0.016138374940236
   7       0.0625906438664
   8      0.93566306160799
   9     0.096486098229351
  10    -0.010187912728146
  11    -0.068644720548744
  12     0.041318051096413
  13     0.010970216787832
  14      0.71995316389664
  15    0.0015842046177446
  16     0.001380984065323
  17     -0.04917910860771
  18    0.0076617077513053
  19    -0.037151564223124
  20    -0.0003057011307688
  21     0.018364164196066
  22     -0.30712355940338
  23    -0.008510819072198
  24    0.0037449339638548
  25    -0.0034394924766246
  26    -0.0096993222123814
  27    -0.0070575459890761
  28      0.16149132166021
  29    0.0013860223656954
  30     0.023538558374349
  31    0.00067349899017925
  32     0.028849591614555
  33    -0.0019631334801743
  34    -0.071750419637903
  35     -0.08633663156464
  36    -0.018952999880817
  37    -0.061662816883129
  38      0.01150505284126
 Sym= A
 Ene=              19
 Spin= Alpha
 Occup=    0.00000
   1    0.0013607403125803
   2    -0.0050440406268184
   3    -0.048395932109509
   4    -0.009931821003313
   5     0.001360717140057
   6    -0.014121746489352
   7    0.0015466584668201
   8    -0.0041919957417382
   9    -0.065922753553309
  10    -0.013481765080365
  11     -0.02495205260022
  12    -0.0015181385711798
  13    0.0099173845032814
  14    0.00045668623143629
  15    -0.063264015933387
  16      0.22420903929591
  17      0.84051237094368
  18     0.082613745056886
  19    0.00035393985738339
  20      0.53366645463481
  21     0.075415419776507
  22    0.00077126759194615
  23      0.63911864583731
  24      0.47923237258173
  25       0.1023857755629
  26    0.00057129057220818
  27    0.0062518203027545
  28    -0.00012381715789424
  29     -0.89156068979966
  30     -0.34357474273993
  31      0.38052667581521
  32    -0.0034913677627042
  33       1.4080664458775
  34    0.0098822393104541
  35     0.035194760152508
  36    -0.0060375150207578
  37    -0.0026766703686517
  38    -0.00011152079299419
 Sym= A
 Ene=              20
 Spin= Alpha
 Occup=    0.00000
   1    -0.00037582023495476
   2    -0.00020324059190943
   3    0.0090969169072307
   4    -0.00049412885897309
   5    0.0082867072132881
   6    0.0014959573799825
   7    -0.0073131950924601
   8     0.043658689200844
   9    0.0073246627545974
  10    0.0024715789964805
  11    -0.001071527390557
  12    0.0077406513738442
  13    -0.00069479679077448
  14     0.018942807360418
  15    -1.1273932295802e-05
  16    4.2441106387196e-05
  17    -0.0092321840852828
  18    0.00064937199990977
  19    -0.094433068040391
  20    0.0022065224307152
  21    -0.004079471560818
  22     -0.24346066463681
  23    -0.0018960571236248
  24    0.0042489428599993
  25    0.0033127522081651
  26     -0.22661798679587
  27    0.0012500088172998
  28    -0.029318775212539
  29    -0.031533089045686
  30     0.046632580974283
  31    -0.009317957587783
  32        1.109781809412
  33    0.00079605708988968
  34    -0.0068993050805054
  35    -0.021068302740884
  36    -0.0013435617830287
  37    -0.0031956876568902
  38    0.0041953207270518
 Sym= A
 Ene=              21
 Spin= Alpha
 Occup=    0.00000
   1     0.015125473254919
   2      -0.2997433898021
   3      0.40762931194774
   4     -0.16787107091034
   5     -0.04242812581577
   6      0.16389477721285
   7      0.44538149729816
   8     0.047644892074191
   9     -0.19158328814374
  10      0.22709623267786
  11      0.96763528547008
  12    -0.0044345716567726
  13     -0.28874398201669
  14     0.073678737337428
  15    0.0010730501832426
  16     0.060181205684768
  17     -0.29171007281485
  18    -0.014822062397931
  19    -0.0038505508427236
  20    -0.030971645924746
  21      0.18216901929117
  22    -0.020234378279866
  23     -0.13263159053379
  24    -0.037027963949599
  25      0.11769088427734
  26    3.7633401926429e-05
  27     0.012135890001364
  28     0.013310970834469
  29     0.072058216391206
  30    -0.030979522434502
  31    -0.031120632845259
  32    0.0016543346862412
  33    -0.006337619410855
  34     0.040249469886869
  35      0.06847275039165
  36     -0.23557871152537
  37    -0.013423208264381
  38    -0.045390942422098
 Sym= A
 Ene=              22
 Spin= Alpha
 Occup=    0.00000
   1    0.0075402506049451
   2    -0.0062574392722806
   3     -0.18123167676418
   4    -0.035642327176957
   5    0.0017246613946411
   6    -0.002452786609134
   7      -0.1371914538705
   8    0.0094376810267169
   9     0.025619335635641
  10     0.025383810239417
  11    -0.031698289105644
  12    0.0039135566172505
  13    -0.021608704918797
  14    -8.7165889560292e-05
  15    0.0080963857576105
  16    -0.084468395084529
  17     -0.16083944056456
  18    -0.087409075276828
  19    -0.00010317621811264
  20    -0.042474640278532
  21      -0.3925378542068
  22    0.00084180157056741
  23     -0.06629702086536
  24     0.047470358551476
  25     -0.20620688606158
  26    0.00079420662308103
  27    0.0081531746377886
  28    0.00044381790424325
  29     -0.36497516127924
  30      0.76400767377811
  31       0.9584484670032
  32    -0.0022668617836837
  33     -0.43056566806355
  34    -0.039341058860971
  35     -0.09836164592077
  36    -0.013493828662187
  37    0.0029637667825807
  38    0.0090061096328942
 Sym= A
 Ene=              23
 Spin= Alpha
 Occup=    0.00000
   1    -0.00040319574852048
   2    0.0015510568337291
   3     0.015469324645247
   4    2.4680789262642e-05
   5    -0.092811622534633
   6     0.017468504594769
   7    -0.0054817564856533
   8     -0.23867882616789
   9      0.04827315264494
  10     0.065592173084132
  11    -0.002589619989002
  12     -0.21364328996587
  13     0.037498263020372
  14     0.029310934286668
  15    0.00036780717675474
  16    0.00012027824532935
  17    -0.0090335248256277
  18    -0.000513765344006
  19    0.0078851910608709
  20    -0.0030315856737693
  21    -0.007970555627407
  22     0.041733438386507
  23    -0.015304289813171
  24    -0.0048228875230895
  25    0.0023073170783054
  26    0.0066657573460907
  27    -0.00044901294097118
  28    -0.018824131986902
  29     0.007110682869877
  30     0.022268929907342
  31    -0.0014096159684889
  32    -0.0038534835142312
  33    -0.0036401010453437
  34     0.028932788938593
  35    -0.053519335760861
  36    -0.010787996574729
  37       1.0943861089594
  38     -0.18402288659709
 Sym= A
 Ene=              24
 Spin= Alpha
 Occup=    0.00000
   1    -0.0055953080115561
   2     -0.01060368023482
   3       0.1500190876672
   4     0.023123265065564
   5    -0.037326163154283
   6    -0.0022144329717102
   7      0.12432135759225
   8     -0.30839951699477
   9    -0.013152948685588
  10    -0.021068197874628
  11    0.0016157466980197
  12     -0.01048456649857
  13     0.030657050452308
  14     -0.16054231505844
  15    0.0030632304852192
  16     0.059982299567775
  17     -0.16913949414309
  18     -0.07725184236426
  19     -0.70751171164356
  20     0.016166517296363
  21      0.22380172959093
  22      0.91493035873548
  23    -0.012085929307757
  24     0.044793908411794
  25    -0.013750940751601
  26    0.0069240916978743
  27    -0.044249210747126
  28     -0.72698213992133
  29    0.0014660398720875
  30    -0.012597035547299
  31    -0.0090510595496147
  32     -0.05671472264975
  33     0.009002549669074
  34     0.017425474916863
  35     0.017034828387478
  36    -0.00069139649036456
  37     0.026310189383983
  38    -0.011011039780098
 Sym= A
 Ene=              25
 Spin= Alpha
 Occup=    0.00000
   1    -0.022185472284709
   2    -0.032185499547866