[Molden Format]
made by pyscf v[2.0.1]
[Atoms] (AU)
C   1   6     0.00000000000000     0.00000000000000     0.00000000000000
C   2   6     2.85272299873892     0.00000000000000     0.00000000000000
H   3   1     3.62066923017674     0.00000000000000     1.90331545357504
F   4   9     3.65943188126013    -2.04308229183900    -1.24074875274501
F   5   9     3.65943188126013     2.04308229183900    -1.24074875274501
F   6   9    -0.80670888252121     1.79658952118831     1.57667650804493
H   7   1    -0.76794623143782     0.33050726003861    -1.87439981510865
F   8   9    -0.80670888252121    -2.22749704090168     0.86712147444210
[GTO]
1 0
 s    8 1.00
                  6665  0.00069158396281299
                  1000  0.0053257961529341
                   228   0.027060721042034
                 64.71    0.10165684614077
                 21.06     0.2745748236174
                 7.495    0.44829431892377
                 2.797    0.28490261071525
                0.5215   0.015194859206082
 s    8 1.00
                  6665  -0.00029326965268655
                  1000  -0.0023180354739745
                   228  -0.011499786038565
                 64.71  -0.046826727009787
                 21.06   -0.12846616875047
                 7.495   -0.30126627246289
                 2.797   -0.25563070233011
                0.5215      1.093793361012
 s    1 1.00
                0.1596                   1
 p    3 1.00
                 9.439   0.056979251590039
                 2.002    0.31320721150073
                0.5456    0.76037674173753
 p    1 1.00
                0.1517                   1
 d    1 1.00
                  0.55                   1

2 0
 s    8 1.00
                  6665  0.00069158396281299
                  1000  0.0053257961529341
                   228   0.027060721042034
                 64.71    0.10165684614077
                 21.06     0.2745748236174
                 7.495    0.44829431892377
                 2.797    0.28490261071525
                0.5215   0.015194859206082
 s    8 1.00
                  6665  -0.00029326965268655
                  1000  -0.0023180354739745
                   228  -0.011499786038565
                 64.71  -0.046826727009787
                 21.06   -0.12846616875047
                 7.495   -0.30126627246289
                 2.797   -0.25563070233011
                0.5215      1.093793361012
 s    1 1.00
                0.1596                   1
 p    3 1.00
                 9.439   0.056979251590039
                 2.002    0.31320721150073
                0.5456    0.76037674173753
 p    1 1.00
                0.1517                   1
 d    1 1.00
                  0.55                   1

3 0
 s    3 1.00
                 13.01   0.033498726389998
                 1.962    0.23480080117413
                0.4446     0.8136829578829
 s    1 1.00
                 0.122                   1
 p    1 1.00
                 0.727                   1

4 0
 s    8 1.00
                 14710  0.00072067370873197
                  2207  0.0055504869689163
                 502.8   0.028254207662589
                 142.6    0.10639582836653
                 46.47    0.28668420124307
                  16.7    0.44843796582416
                 6.356    0.26464118141135
                 1.316   0.015326060993048
 s    8 1.00
                 14710  -0.00032119389049893
                  2207  -0.0025461915683188
                 502.8  -0.012643359507821
                 142.6   -0.05195749170489
                 46.47   -0.14344713812646
                  16.7   -0.33243762329603
                 6.356   -0.21865906750347
                 1.316     1.0955904138622
 s    1 1.00
                0.3897                   1
 p    3 1.00
                 22.67   0.064834021493887
                 4.977    0.34053535983101
                 1.347    0.73464640679382
 p    1 1.00
                0.3471                   1
 d    1 1.00
                  1.64                   1

5 0
 s    8 1.00
                 14710  0.00072067370873197
                  2207  0.0055504869689163
                 502.8   0.028254207662589
                 142.6    0.10639582836653
                 46.47    0.28668420124307
                  16.7    0.44843796582416
                 6.356    0.26464118141135
                 1.316   0.015326060993048
 s    8 1.00
                 14710  -0.00032119389049893
                  2207  -0.0025461915683188
                 502.8  -0.012643359507821
                 142.6   -0.05195749170489
                 46.47   -0.14344713812646
                  16.7   -0.33243762329603
                 6.356   -0.21865906750347
                 1.316     1.0955904138622
 s    1 1.00
                0.3897                   1
 p    3 1.00
                 22.67   0.064834021493887
                 4.977    0.34053535983101
                 1.347    0.73464640679382
 p    1 1.00
                0.3471                   1
 d    1 1.00
                  1.64                   1

6 0
 s    8 1.00
                 14710  0.00072067370873197
                  2207  0.0055504869689163
                 502.8   0.028254207662589
                 142.6    0.10639582836653
                 46.47    0.28668420124307
                  16.7    0.44843796582416
                 6.356    0.26464118141135
                 1.316   0.015326060993048
 s    8 1.00
                 14710  -0.00032119389049893
                  2207  -0.0025461915683188
                 502.8  -0.012643359507821
                 142.6   -0.05195749170489
                 46.47   -0.14344713812646
                  16.7   -0.33243762329603
                 6.356   -0.21865906750347
                 1.316     1.0955904138622
 s    1 1.00
                0.3897                   1
 p    3 1.00
                 22.67   0.064834021493887
                 4.977    0.34053535983101
                 1.347    0.73464640679382
 p    1 1.00
                0.3471                   1
 d    1 1.00
                  1.64                   1

7 0
 s    3 1.00
                 13.01   0.033498726389998
                 1.962    0.23480080117413
                0.4446     0.8136829578829
 s    1 1.00
                 0.122                   1
 p    1 1.00
                 0.727                   1

8 0
 s    8 1.00
                 14710  0.00072067370873197
                  2207  0.0055504869689163
                 502.8   0.028254207662589
                 142.6    0.10639582836653
                 46.47    0.28668420124307
                  16.7    0.44843796582416
                 6.356    0.26464118141135
                 1.316   0.015326060993048
 s    8 1.00
                 14710  -0.00032119389049893
                  2207  -0.0025461915683188
                 502.8  -0.012643359507821
                 142.6   -0.05195749170489
                 46.47   -0.14344713812646
                  16.7   -0.33243762329603
                 6.356   -0.21865906750347
                 1.316     1.0955904138622
 s    1 1.00
                0.3897                   1
 p    3 1.00
                 22.67   0.064834021493887
                 4.977    0.34053535983101
                 1.347    0.73464640679382
 p    1 1.00
                0.3471                   1
 d    1 1.00
                  1.64                   1

[5d]
[7f]
[9g]

[MO]
 Sym= A
 Ene=               0
 Spin= Alpha
 Occup=    1.00000
   1       1.0019104503842
   2    0.0042200373743665
   3    -0.0073977101188817
   4    -0.00058962804161424
   5    -0.00017729105464136
   6    0.0011077106789119
   7    -0.0015855908994826
   8    -0.0001030855566417
   9    0.00073411113412942
  10    -6.9240543604055e-05
  11    -0.00011337661278218
  12    8.644239761809e-05
  13    -0.00032640059414723
  14    1.7873518867571e-05
  15    -0.00021041358060292
  16    7.585455201542e-05
  17    0.0031734764660763
  18    -0.00047576152033205
  19    4.126130242184e-06
  20    8.8104993270215e-06
  21    -0.0015407438667693
  22    2.7810713571744e-05
  23    -0.00044150962898981
  24    -4.1227186685201e-05
  25    9.4213044837676e-05
  26    -7.053981839153e-06
  27    8.2341737889891e-05
  28    -2.0852077607679e-05
  29    -5.0208041963289e-05
  30    0.00043676193230002
  31    -9.8126869637524e-05
  32    1.9955147471713e-06
  33    -2.1269453073823e-05
  34    -8.2469235930132e-06
  35    -5.5383115136029e-06
  36    -0.00014810200105922
  37    -5.3525797901466e-06
  38    1.2747604124705e-05
  39    -6.5274611150219e-06
  40    -9.2799961506963e-05
  41    -9.2318545034044e-05
  42    3.1147813371895e-05
  43    -1.9017172940214e-05
  44    -1.2051080377745e-05
  45    1.2420278836316e-05
  46    2.4996887766119e-05
  47    -1.168128424657e-05
  48    -9.6810891597325e-07
  49    5.9855454435582e-06
  50    -0.00019060512542613
  51    -7.9976298269623e-07
  52    -8.9888559968609e-06
  53    -1.0086841577849e-05
  54    -6.6990354951027e-05
  55    8.815159572998e-05
  56    4.5828394502153e-05
  57    -1.7285097900101e-05
  58    -1.2218675665445e-05
  59    -1.4402899215648e-05
  60    2.2163994152123e-05
  61    9.2072040378902e-06
  62    0.00015729397220422
  63    0.0006796128120422
  64    -0.00016339225746034
  65    7.2509695534856e-05
  66    -0.00027667241653038
  67    -0.00019294238485853
  68    -0.00013612108885069
  69    0.00070208310355149
  70    0.00053765823598251
  71    2.9152309745354e-06
  72    4.2001893518775e-05
  73    -0.00013641377029696
  74    6.5530955164159e-05
  75    6.5431221617145e-05
  76    0.00097141809856011
  77    0.0015395664268395
  78    0.00022279751002445
  79    -1.5788348001892e-05
  80    6.4980688296509e-05
  81    0.00015041556554202
  82    0.00066609421074357
  83    -0.00012104646381654
  84    7.3829757748483e-05
  85    0.00032733619995817
  86    -8.7135957471904e-05
  87    -0.00013151452216175
  88    -0.000831092836149
  89    0.00025960877191286
  90    7.064460366985e-05
  91    1.6898686730533e-05
  92    7.9619518617614e-05
  93    0.00010304920502596
  94    -7.3874467013838e-05
 Sym= A
 Ene=               1
 Spin= Alpha
 Occup=    1.00000
   1    -0.00021041374057384
   2    7.5842645588442e-05
   3    0.0031734684199331
   4    0.00047574258071061
   5    5.5931805033625e-06
   6    -7.9592789808531e-06
   7    0.0015407388134804
   8    -4.9279300858699e-05
   9    0.00043963130123951
  10    -3.9422474547722e-05
  11    9.6403128070732e-05
  12    4.7587039704267e-06
  13    8.338162994448e-05
  14    4.1751862647065e-06
  15       1.0019104500693
  16    0.0042200355468352
  17    -0.0073977125576504
  18    0.00058965392567084
  19    1.7748827366527e-05
  20    -0.0011216540912843
  21    0.0015855989023793
  22    2.5956957940094e-05
  23    -0.00074085381165707
  24    -8.3188200509069e-05
  25    -0.00011475792130122
  26    -4.9015363820594e-06
  27    -0.00033445510288188
  28    2.0851933960714e-06
  29    0.00097143558368228
  30     0.001539572641993
  31    -0.00022279774416848
  32    -4.2648521003185e-06
  33    -6.673642448079e-05
  34    0.0001504153631306
  35    0.00066609748170153
  36    -0.00012104294111686
  37    -7.3827546588812e-05
  38    0.00030723701253984
  39    0.0001426598489488
  40    0.00013151461697712
  41    -0.00077338296946563
  42    -0.0003999791156832
  43    4.117541253393e-05
  44    2.9470172939055e-05
  45    -0.00011336471046936
  46    8.6034754704682e-05
  47    6.9817975806649e-05
  48    0.00015729408620559
  49    0.00067961052219117
  50    -0.00016339338289214
  51    -7.2501695577368e-05
  52    -0.00030597013249534
  53    0.0001419688570932
  54    0.00013612494794135
  55    0.00078478197911146
  56    -0.00040757413082609
  57    4.1477899870265e-05
  58    3.0002021214771e-05
  59    0.00011611697641675
  60    8.7794821379386e-05
  61    -7.173123206057e-05
  62    -9.6815315427955e-07
  63    5.9847658946347e-06
  64    -0.00019060517610553
  65    8.0370058938963e-07
  66    -1.0604178545768e-05
  67    8.3715137092631e-06
  68    6.699413919236e-05
  69    9.4770099658711e-05
  70    -2.9825769462232e-05
  71    -1.2815900631769e-05
  72    -1.3631735294597e-05
  73    1.4863862032986e-05
  74    2.4744191782184e-05
  75    -6.9454632983035e-06
  76    -5.0206994014477e-05
  77    0.00043676568917832
  78    9.812636381362e-05
  79    -1.7281896458863e-06
  80    2.1292724248311e-05
  81    -8.2469002945705e-06
  82    -5.5381239721726e-06
  83    -0.00014810096833881
  84    5.3565864395928e-06
  85    1.1420809945808e-05
  86    8.6414812739437e-06
  87    9.2803872698736e-05
  88    -8.5506884567954e-05
  89    -4.6705952864637e-05
  90    -2.248860106727e-05
  91    -9.8394885467329e-06
  92    -1.0313130948045e-05
  93    2.2992565472248e-05
  94    1.3596317644441e-05
 Sym= A
 Ene=               2
 Spin= Alpha
 Occup=    1.00000
   1    -0.0001793848954879
   2    0.00030315112952309
   3    0.0035660996646469
   4    -0.00039732024948066
   5    -0.00089473701891593
   6    0.00036150060327329
   7    0.00019581551875499
   8    -0.0013925931583309
   9    0.00087756005699101
  10    -6.1940133702301e-05
  11    -5.1402201893388e-05
  12    -7.1345963367262e-05
  13    -7.2743416339229e-05
  14    8.9410025496473e-05
  15    4.4669015740872e-05
  16    4.7206034484442e-05
  17    -0.0013023501246066
  18    0.00013541906392398
  19    -1.7457283671018e-05
  20    7.6202701605021e-06
  21    0.00071295259989381
  22    0.00024263968476243
  23    -0.00017327031476736
  24    4.052584590252e-06
  25    1.2434590892709e-05
  26    -1.6940391274471e-05
  27    -8.9198087809864e-05
  28    -9.4844448353949e-06
  29    0.0001008905785334
  30    -0.00011366911563895
  31    4.726082829194e-05
  32    3.7903405083688e-06
  33    2.8436901225694e-06
  34    1.4699391114563e-05
  35    2.7770329757881e-05
  36    4.7614469437859e-06
  37    -8.8099125042421e-06
  38    -3.3248766558307e-07
  39    -2.352264534734e-05
  40    5.8438327082061e-05
  41    5.1145539964249e-06
  42    4.4556168137659e-05
  43    9.0076355268386e-06
  44    1.0143493286034e-05
  45    -4.6103158601941e-06
  46    -1.747491159546e-05
  47    8.1118741719425e-07
  48    -2.4929603192309e-05
  49    -4.4338865408894e-05
  50    0.00010745601017012
  51    2.5169765963859e-05
  52    -9.4867972454772e-06
  53    5.5806116008964e-07
  54    -0.00018834146384996
  55    -1.6348158789332e-05
  56    1.513139218182e-05
  57    -2.5626058243305e-06
  58    2.821533252104e-06
  59    2.8854601545171e-06
  60    1.090596948278e-06
  61    -1.0379399576266e-06
  62    8.880772694594e-05
  63    0.00014606983635645
  64    -0.00064930571921074
  65    -4.324436295989e-06
  66    2.7325978328421e-05
  67    4.8525244804593e-05
  68    -2.6810985087736e-05
  69    0.0004290050350523
  70    -7.6760102441871e-05
  71    1.6905372860677e-05
  72    -1.0546737402535e-05
  73    -9.8195202463677e-06
  74    1.5308974392183e-05
  75    1.3062386788011e-05
  76    -0.0002212803803203
  77    -5.9073042626071e-05
  78    1.1721681233043e-05
  79    0.00015244386415817
  80    -6.7783765710887e-05
  81       1.0010286560749
  82    0.00079785018438097
  83    -0.0057913062991266
  84    0.00073633871442986
  85    0.0021117867870602
  86    -0.00081960433589586
  87    -0.00027324149585682
  88    -0.00058377722720042
  89    0.00015427274718987
  90    3.6415619036027e-05
  91    3.0600995309747e-05
  92    6.4561919353421e-05
  93    8.3981284206603e-05
  94    -6.7027110345954e-05
 Sym= A
 Ene=               3
 Spin= Alpha
 Occup=    1.00000
   1    4.4670938880798e-05
   2    4.721124500297e-05
   3    -0.001302362088802
   4    -0.00013541681049704
   5    -1.5877443039205e-05
   6    -1.0542364578688e-05
   7    -0.00071296388408765
   8    0.00020886935341579
   9    0.00021275500260243
  10    1.1215529270723e-05
  11    1.3888227533349e-05
  12    2.9972789562828e-05
  13    -8.5059785005856e-05
  14    7.1743993510764e-06
  15    -0.00017936788190251
  16    0.00030328068846768
  17    0.0035661335387941
  18    0.00039737863406336
  19    -0.00081851580208462
  20    -0.00051146997889129
  21    -0.00019581634291911
  22    -0.0012190561631568
  23    -0.0011060374027571
  24    -3.6106382809451e-05
  25    -6.6151506244385e-05
  26    9.7841643439772e-05
  27    -5.7828661720219e-05
  28    -7.9134149670769e-05
  29    -0.00022128182915562
  30    -5.9104983239501e-05
  31    -1.1718383829255e-05
  32    0.00013835225349954
  33    9.3222441050093e-05
  34       1.0010286557753
  35    0.00079714998219289
  36    -0.0057921345123125
  37    -0.0007364451133029
  38    0.0019378594771957
  39    0.0011741065660634
  40    0.00027317345309618
  41    -0.00054779895810566
  42    -0.00025313783713758
  43    1.3449871239235e-05
  44    4.177175084495e-05
  45    -8.5805676392086e-05
  46    7.0714972878759e-05
  47    6.0688902813635e-05
  48    8.8806988996519e-05
  49    0.00014606170276167
  50    -0.00064931021739791
  51    4.3238933471454e-06
  52    3.535957189387e-05
  53    -4.3044605352665e-05
  54    2.6809460702043e-05
  55    0.00040917616281396
  56    0.00015008961009045
  57    1.8647958021088e-05
  58    -1.2654038966183e-05
  59    1.6019211418816e-06
  60    1.6314056955208e-05
  61    -1.1032495600638e-05
  62    -2.4929195487443e-05
  63    -4.4336424722921e-05
  64    0.00010746105302777
  65    -2.5163186979618e-05
  66    -9.2478528803426e-06
  67    -2.1983573935976e-06
  68    0.00018834602186577
  69    -1.3474820875773e-05
  70    -1.7738915075014e-05
  71    -3.3298259796185e-06
  72    2.9590105759292e-06
  73    -2.1391376692918e-06
  74    6.4748632779972e-07
  75    5.3232665800827e-07
  76    0.00010089093612626
  77    -0.00011368271246713
  78    -4.7260720382588e-05
  79    4.2257373028585e-06
  80    -2.1425608332334e-06
  81    1.4698803932235e-05
  82    2.7770442157385e-05
  83    4.7696868040637e-06
  84    8.8121471306148e-06
  85    -4.4150362359131e-06
  86    2.3106622592601e-05
  87    -5.8436522120754e-05
  88    1.2776676458369e-05
  89    -4.2989064266556e-05
  90    1.0422090271351e-05
  91    9.8484974534869e-06
  92    4.6523385486816e-06
  93    -1.665839257441e-05
  94    -2.5600920495554e-06
 Sym= A
 Ene=               4
 Spin= Alpha
 Occup=    1.00000
   1    4.6651558691024e-05
   2    5.4175870538901e-05
   3    -0.0012490537364908
   4    -0.00014528912283566
   5    2.1829088387777e-05
   6    -1.6107442548649e-05
   7    -0.00063889806866872
   8    -0.00014932134673949
   9    0.00026824312543684
  10    2.9471530050224e-05
  11    2.9567906099363e-05
  12    -3.8557375809096e-05
  13    -7.8501753723983e-05
  14    -5.4074043913661e-06
  15    -0.00017303942732358
  16    0.00030739530830366
  17    0.0034577071611219
  18    0.0003964508785699
  19    0.00080790439089584
  20    -0.00050702148589349
  21    -0.0001647568892617
  22    0.0012010949237103
  23    -0.0010729462721076
  24    -2.8633215874247e-05
  25    -5.33422816025e-05
  26    -9.9212167225699e-05
  27    -5.7303874052513e-05
  28    8.3426453642426e-05
  29    -0.00023175160795172
  30    -6.0492518613787e-05
  31    -8.567428767465e-06
  32    -0.00013776170009472
  33    9.5367276932884e-05
  34    8.6415198148946e-05
  35    0.00014190163043591
  36    -0.00062746941417233
  37    2.8423778587092e-06
  38    -3.6042342562706e-05
  39    -4.025711240334e-05
  40    2.7842542685251e-05
  41    -0.0003943647304377
  42    0.00014528033481508
  43    1.8331722182766e-05
  44    -1.2389960793652e-05
  45    -9.9186964794705e-07
  46    1.4949889833405e-05
  47    1.1105789530373e-05
  48       1.0010250298149
  49    0.00083552159002812
  50    -0.0057086048871295
  51    -0.00074572244288296
  52    -0.001907669493666
  53      0.00114601201395
  54    0.00027340193848701
  55    0.00054657734340023
  56    -0.00027850055206016
  57    1.2465423812386e-05
  58    4.2866566810233e-05
  59    8.6792850198477e-05
  60    7.0111373128668e-05
  61    -5.9184602945109e-05
  62    3.1707232569647e-05
  63    6.4352326326616e-05
  64    -6.7802711185568e-05
  65    2.516725984857e-05
  66    -5.698496760649e-06
  67    5.6410335548757e-06
  68    -7.1967361849832e-05
  69    -7.7843436771219e-06
  70    -1.3065336647697e-05
  71    7.934782037087e-06
  72    1.099939068586e-05
  73    1.3566281980951e-06
  74    -1.6377982854993e-05
  75    -2.1292706862456e-06
  76    7.3369770609242e-05
  77    -4.8426510757482e-05
  78    -6.4048986879323e-05
  79    -1.602687098682e-05
  80    -1.228792383041e-05
  81    -2.5929735839431e-05
  82    -4.6672205187484e-05
  83    0.00012254288383325
  84    -2.0845495469995e-05
  85    8.3946863192705e-06
  86    3.1544172770365e-06
  87    0.00016362604853498
  88    1.4317136583954e-05
  89    -3.7517977755028e-05
  90    4.3754226796059e-06
  91    2.673378965384e-06
  92    -2.9320330980154e-06
  93    3.646479463244e-06
  94    -3.4889420419457e-06
 Sym= A
 Ene=               5
 Spin= Alpha
 Occup=    1.00000
   1    -0.000173016945084
   2    0.00030755839670102
   3    0.0034577517044108
   4    -0.00039651786874625
   5    0.00070776259233499
   6    0.00063975199062442
   7    0.00016476243473582
   8    0.00099656675513348
   9    0.0012651878818114
  10    3.5295323589307e-06
  11    -6.7022887737244e-05
  12    0.00011151786683276
  13    -3.8733880080442e-05
  14    -7.2907147976923e-05
  15    4.6652829368767e-05
  16    5.4185273773904e-05
  17    -0.0012490446404313
  18    0.00014528264337798
  19    1.8711178398643e-05
  20    1.967181072068e-05
  21    0.00063892337332496
  22    -0.00010048565052051
  23    -0.00029005821939711
  24    4.1607651238389e-05
  25    3.005040781276e-05
  26    4.0928012085223e-05
  27    -7.1491282704434e-05
  28    1.8369297353738e-07
  29    7.3374694838484e-05
  30    -4.8470930065569e-05
  31    6.4049897498929e-05
  32    -1.7916463062088e-05
  33    9.318391853198e-06
  34    -2.5928772567278e-05
  35    -4.6670016757232e-05
  36    0.00012254349161394
  37    2.0841798498669e-05
  38    8.8161395754279e-06
  39    -1.6508047628195e-06
  40    -0.00016363103990844
  41    7.5858505968473e-06
  42    3.9426815605348e-05
  43    4.9509733293785e-06
  44    3.2386776452019e-06
  45    8.3527251351947e-07
  46    3.9786043375014e-06
  47    2.9720296702317e-06
  48    3.1705500271825e-05
  49    6.4349423045031e-05
  50    -6.7788731246444e-05
  51    -2.5166080699384e-05
  52    -4.6304426292829e-06
  53    -6.5478840093848e-06
  54    7.1963740335643e-05
  55    -9.9366601611994e-06
  56    1.151098479839e-05
  57    7.6018684462155e-06
  58    1.1201672220892e-05
  59    -8.2444210551263e-07
  60    -1.6570051357464e-05
  61    1.8677381362218e-07
  62       1.0010250303268
  63    0.0008345684096801
  64    -0.0057097324768765
  65    0.00074585705858652
  66    -0.0016800072472788
  67    -0.0014605608376369
  68    -0.00027331713987063
  69    0.00048970020104227
  70    0.00036871155497378
  71    -1.5629445714439e-05
  72    5.2484460408669e-05
  73    -9.7224289735732e-05
  74    5.3881842446559e-05
  75    5.0836646310336e-05
  76    -0.0002317767072935
  77    -6.0553677579883e-05
  78    8.5640664247977e-06
  79    -0.00011910400919342
  80    -0.00011783541500288
  81    8.6413361942616e-05
  82    0.00014190094157384
  83    -0.00062744880823881
  84    -2.8411845734593e-06
  85    -4.2480361943033e-05
  86    3.3391293622785e-05
  87    -2.7839569871157e-05
  88    -0.0003631410433699
  89    -0.00021155240676527
  90    1.7403504283922e-05
  91    -1.4129019819522e-05
  92    -7.0536733590926e-06
  93    1.4412866708433e-05
  94    -8.7855332580198e-06
 Sym= A
 Ene=               6
 Spin= Alpha
 Occup=    1.00000
   1    0.0017790137935743
   2     0.032822534626207
   3     0.081203676033944
   4     0.043064951426623
   5    -0.00035277983243151
   6    -0.0094338156717455
   7     0.021079126090281
   8    -0.024991645962193
   9    -0.0080412174102998
  10    0.00025484706210425
  11    -0.00087312365917702
  12    0.0017980130048665
  13    0.0019439972050137
  14    0.00057988335615974
  15    0.0027477744214069
  16    0.0031446418054239
  17    -0.012010467485383
  18    0.0003239791350748
  19    0.0020616492665558
  20    -9.6855245095274e-06
  21      0.03064620277768
  22     0.020982796147913
  23    0.0098715912707803
  24    -0.023873204005291
  25    -0.010160897353718
  26     0.017524858995901
  27     0.011221450979151
  28     0.025955069235216
  29     -0.05125228914719
  30    -0.047236004290501
  31    -0.0019510238425994
  32    -0.003084371712645
  33    0.00072043959977289
  34    -0.00081065672671555
  35    -0.00022246051727085
  36     0.010123156678168
  37     -0.00314630900001
  38    0.0021831553688976
  39    -0.001377888444847
  40    -0.0048813995629278
  41    0.0020476181624704
  42    0.00059145767329386
  43    -0.00059522636910854
  44    -0.00022511951776438
  45    0.00030933128311408
  46    0.0003507235857781
  47    0.00032158534671993
  48    0.0016159341222896
  49    -0.0029268660228545
  50    -0.016635960406095
  51      0.53998021991489
  52     0.025432119533126
  53      0.39383302116293
  54      0.37568593843326
  55     0.019486274281122
  56      0.27131251098179
  57    0.0071045716099269
  58     0.002486119625225
  59    -0.0063734911737556
  60    -0.0035974791629823
  61    -0.0094888265021195
  62    -0.00041447366285431
  63    -0.0011543702741805
  64    0.0021548072038126
  65    -0.0016445021699322
  66    0.0026276051364691
  67    1.9996639134878e-05
  68    -0.0036077158512219
  69    0.0043723316137406
  70    -0.00052806319871477
  71    7.4942917102747e-05
  72    -0.00029251836016925
  73    9.351334062204e-05
  74    0.00026418001059692
  75    -0.00048238529040085
  76    0.0084939381746326
  77    -0.028600799355158
  78    -0.0019982270232675
  79    -0.00011950717149797
  80    0.00064824560068448
  81    0.0012959445401991
  82    -0.0019845122396491
  83     -0.02186369026669
  84    -0.0081138305453181
  85    -0.008585837254962
  86      0.00583440230817
  87    -0.0069158173411279
  88    -0.010783306845536
  89    0.0075764875467704
  90    -5.6159235261104e-05
  91    -0.00035186078528109
  92    0.00010232959935876
  93    0.00063124470989523
  94    0.00057338701773757
 Sym= A
 Ene=               7
 Spin= Alpha
 Occup=    1.00000
   1    -0.0027481497359607
   2    -0.003147393128777
   3     0.012009704612966
   4    0.00032541241194585
   5    -0.0020312666951302
   6    -0.00037014343567398
   7     0.030646043186753
   8    -0.022378459044009
   9    0.0060782860698794
  10     0.028277252309732
  11     0.014513635610035
  12     0.011315567123295
  13    -0.0086786449177484
  14      0.02379637260086
  15    -0.0017790380545146
  16    -0.032822417239086
  17    -0.081203276997133
  18     0.043064670395359
  19    0.0019854064914822
  20    -0.0092295053207663
  21     0.021078567753702
  22     0.026008377838746
  23    -0.003579894686315
  24    0.0003400286639945
  25    0.00096067879884484
  26    0.0020974864058039
  27    -0.0016005825613818
  28    0.00041956529116696
  29    -0.0084939944582154
  30     0.028601314026791
  31    -0.0019982306717767
  32    5.1129435559777e-06
  33    0.00065914517916784
  34    -0.0012959569196085
  35    0.0019844829624467
  36     0.021863579239557
  37      -0.0081136969793
  38    0.0074422306896732
  39    0.0072366610417939
  40    -0.006915675549579
  41     0.009303785285338
  42    0.0093339469123235
  43    0.00010040809195236
  44     0.000446078524935
  45    0.00018747867579434
  46    -0.00060569120168156
  47    0.00050356649772757
  48    0.0004144969536818
  49    0.0011544227196218
  50    -0.0021550262601649
  51    -0.0016445003691206
  52    -0.0025911724915581
  53    -0.00043657432625101
  54    -0.0036076191008508
  55    -0.0042141430661451
  56    -0.0012792386155072
  57    -3.695924603022e-05
  58    0.00020431147458344
  59    0.00015525163508151
  60    -0.00024224849324481
  61    -0.00052584602158254
  62    -0.0016155421766963
  63    0.0029428290103108
  64     0.016654748953782
  65      0.53997570694158
  66    -0.093426271821378
  67      0.38344138076849
  68      0.37568293169896
  69    -0.066297897925539
  70      0.26381213459433
  71    -0.0087650257646087
  72    -0.0040959356918493
  73    -0.0045002172591145
  74    0.0026389382864372
  75    -0.008912821496353
  76     0.051252369297189
  77     0.047236669827812
  78    -0.0019509429121092
  79    0.0029123161465452
  80    0.0012449986203393
  81    0.00081068284703429
  82    0.00022233923290366
  83    -0.010123432424209
  84    -0.0031463359605219
  85    -0.0019109419193369
  86    -0.0017360620521508
  87    -0.0048814357745922
  88    -0.002119324295519
  89    0.00022691728030464
  90    0.00066912680043233
  91    0.00027752373029186
  92    0.00017434114741699
  93    -0.00030802525411207
  94    0.00027760205341724
 Sym= A
 Ene=               8
 Spin= Alpha
 Occup=    1.00000
   1    -0.0027802187647794
   2    -0.002691699043731
   3     0.017014624195637
   4    0.00045894016300454
   5    0.0014756814237108
   6    0.00076421863193354
   7     0.034485322676299
   8     0.019766365380924
   9     0.013081416231473
  10     0.017989157735513
  11    0.0054637363390123
  12    -0.021771150209496
  13    -0.014567990411719
  14    -0.027590027590686
  15    -0.0021804260651181
  16    -0.032026247920415
  17    -0.076535492259958
  18      0.04458489206897
  19    -0.001263014648217
  20    -0.0058422605253472
  21     0.029260792706793
  22    -0.028850528975891
  23    -0.0044298095417665
  24    -7.2012000669522e-05
  25    0.00037509996314569
  26    -0.0020920466005314
  27    -0.0022494916991251
  28    -0.00085026193250163
  29    -0.0050223262017874
  30     0.022649544008082
  31    5.7434092286758e-06
  32    0.00074749188618602
  33    -0.00012094193039823