[Molden Format]
made by pyscf v[2.0.1]
[Atoms] (AU)
C   1   6     0.00000000000000     0.00000000000000     0.00000000000000
C   2   6     2.85272299873892     0.00000000000000     0.00000000000000
H   3   1     3.62066923017674     0.00000000000000     1.90331545357504
F   4   9     3.65943188126013    -2.04308229183900    -1.24074875274501
F   5   9     3.65943188126013     2.04308229183900    -1.24074875274501
F   6   9    -0.80670888252121     1.24074875274501     2.04308229183900
H   7   1    -0.76794623143782    -1.90331545357504    -0.00000000000000
F   8   9    -0.80670888252121     1.24074875274501    -2.04308229183900
[GTO]
1 0
 s    8 1.00
                  6665  0.00069158396281299
                  1000  0.0053257961529341
                   228   0.027060721042034
                 64.71    0.10165684614077
                 21.06     0.2745748236174
                 7.495    0.44829431892377
                 2.797    0.28490261071525
                0.5215   0.015194859206082
 s    8 1.00
                  6665  -0.00029326965268655
                  1000  -0.0023180354739745
                   228  -0.011499786038565
                 64.71  -0.046826727009787
                 21.06   -0.12846616875047
                 7.495   -0.30126627246289
                 2.797   -0.25563070233011
                0.5215      1.093793361012
 s    1 1.00
                0.1596                   1
 p    3 1.00
                 9.439   0.056979251590039
                 2.002    0.31320721150073
                0.5456    0.76037674173753
 p    1 1.00
                0.1517                   1
 d    1 1.00
                  0.55                   1

2 0
 s    8 1.00
                  6665  0.00069158396281299
                  1000  0.0053257961529341
                   228   0.027060721042034
                 64.71    0.10165684614077
                 21.06     0.2745748236174
                 7.495    0.44829431892377
                 2.797    0.28490261071525
                0.5215   0.015194859206082
 s    8 1.00
                  6665  -0.00029326965268655
                  1000  -0.0023180354739745
                   228  -0.011499786038565
                 64.71  -0.046826727009787
                 21.06   -0.12846616875047
                 7.495   -0.30126627246289
                 2.797   -0.25563070233011
                0.5215      1.093793361012
 s    1 1.00
                0.1596                   1
 p    3 1.00
                 9.439   0.056979251590039
                 2.002    0.31320721150073
                0.5456    0.76037674173753
 p    1 1.00
                0.1517                   1
 d    1 1.00
                  0.55                   1

3 0
 s    3 1.00
                 13.01   0.033498726389998
                 1.962    0.23480080117413
                0.4446     0.8136829578829
 s    1 1.00
                 0.122                   1
 p    1 1.00
                 0.727                   1

4 0
 s    8 1.00
                 14710  0.00072067370873197
                  2207  0.0055504869689163
                 502.8   0.028254207662589
                 142.6    0.10639582836653
                 46.47    0.28668420124307
                  16.7    0.44843796582416
                 6.356    0.26464118141135
                 1.316   0.015326060993048
 s    8 1.00
                 14710  -0.00032119389049893
                  2207  -0.0025461915683188
                 502.8  -0.012643359507821
                 142.6   -0.05195749170489
                 46.47   -0.14344713812646
                  16.7   -0.33243762329603
                 6.356   -0.21865906750347
                 1.316     1.0955904138622
 s    1 1.00
                0.3897                   1
 p    3 1.00
                 22.67   0.064834021493887
                 4.977    0.34053535983101
                 1.347    0.73464640679382
 p    1 1.00
                0.3471                   1
 d    1 1.00
                  1.64                   1

5 0
 s    8 1.00
                 14710  0.00072067370873197
                  2207  0.0055504869689163
                 502.8   0.028254207662589
                 142.6    0.10639582836653
                 46.47    0.28668420124307
                  16.7    0.44843796582416
                 6.356    0.26464118141135
                 1.316   0.015326060993048
 s    8 1.00
                 14710  -0.00032119389049893
                  2207  -0.0025461915683188
                 502.8  -0.012643359507821
                 142.6   -0.05195749170489
                 46.47   -0.14344713812646
                  16.7   -0.33243762329603
                 6.356   -0.21865906750347
                 1.316     1.0955904138622
 s    1 1.00
                0.3897                   1
 p    3 1.00
                 22.67   0.064834021493887
                 4.977    0.34053535983101
                 1.347    0.73464640679382
 p    1 1.00
                0.3471                   1
 d    1 1.00
                  1.64                   1

6 0
 s    8 1.00
                 14710  0.00072067370873197
                  2207  0.0055504869689163
                 502.8   0.028254207662589
                 142.6    0.10639582836653
                 46.47    0.28668420124307
                  16.7    0.44843796582416
                 6.356    0.26464118141135
                 1.316   0.015326060993048
 s    8 1.00
                 14710  -0.00032119389049893
                  2207  -0.0025461915683188
                 502.8  -0.012643359507821
                 142.6   -0.05195749170489
                 46.47   -0.14344713812646
                  16.7   -0.33243762329603
                 6.356   -0.21865906750347
                 1.316     1.0955904138622
 s    1 1.00
                0.3897                   1
 p    3 1.00
                 22.67   0.064834021493887
                 4.977    0.34053535983101
                 1.347    0.73464640679382
 p    1 1.00
                0.3471                   1
 d    1 1.00
                  1.64                   1

7 0
 s    3 1.00
                 13.01   0.033498726389998
                 1.962    0.23480080117413
                0.4446     0.8136829578829
 s    1 1.00
                 0.122                   1
 p    1 1.00
                 0.727                   1

8 0
 s    8 1.00
                 14710  0.00072067370873197
                  2207  0.0055504869689163
                 502.8   0.028254207662589
                 142.6    0.10639582836653
                 46.47    0.28668420124307
                  16.7    0.44843796582416
                 6.356    0.26464118141135
                 1.316   0.015326060993048
 s    8 1.00
                 14710  -0.00032119389049893
                  2207  -0.0025461915683188
                 502.8  -0.012643359507821
                 142.6   -0.05195749170489
                 46.47   -0.14344713812646
                  16.7   -0.33243762329603
                 6.356   -0.21865906750347
                 1.316     1.0955904138622
 s    1 1.00
                0.3897                   1
 p    3 1.00
                 22.67   0.064834021493887
                 4.977    0.34053535983101
                 1.347    0.73464640679382
 p    1 1.00
                0.3471                   1
 d    1 1.00
                  1.64                   1

[5d]
[7f]
[9g]

[MO]
 Sym= A
 Ene=               0
 Spin= Alpha
 Occup=    1.00000
   1    -0.00023055572909984
   2    3.2230382489437e-05
   3     0.003280291985759
   4    0.00047935213079035
   5    1.4212995286864e-06
   6    1.8221691691463e-05
   7    0.0015975643811876
   8    0.00035195154375712
   9    9.9606937058799e-05
  10    -5.3614646885041e-06
  11    0.00011453276949312
  12    -8.4569689569573e-06
  13    9.5640301841654e-05
  14    -2.3835999624717e-05
  15       1.0019134139293
  16    0.0042288343153299
  17    -0.0074608643334329
  18    0.00058693178899151
  19    -4.3423683993552e-05
  20    -0.0010810555777639
  21    0.0015850677179646
  22    -0.00011957950855761
  23    -0.00059233436908438
  24    -7.5869380257797e-05
  25    -0.00011547856205069
  26    3.8020869299608e-06
  27    -0.00033159892572888
  28    7.5394528694601e-06
  29    0.00093094260583495
  30    0.0015146987882783
  31    -0.00021831693312962
  32    1.0761128784267e-05
  33    -5.7996856215467e-05
  34    0.00015458267697651
  35    0.00067508067682761
  36    -0.00014429952399776
  37    -7.3531874074359e-05
  38    0.00030090447064544
  39    0.00014976732577966
  40    0.00013953921941641
  41    -0.00075134185684474
  42    -0.00044290189746693
  43    3.912515088937e-05
  44    3.1222235096164e-05
  45    -0.00011688163603272
  46    8.5084510798316e-05
  47    7.1588218373984e-05
  48    0.00014162963550598
  49    0.00064825034032521
  50    -4.4764850465568e-05
  51    -8.3774466092742e-05
  52    -0.00030549568473699
  53    0.00014590413083197
  54    0.00016274381643381
  55    0.00074328092214166
  56    -0.00040096332572943
  57    4.2236889882491e-05
  58    2.9416137299509e-05
  59    0.00011214894248465
  60    8.1522884689824e-05
  61    -6.8948923103634e-05
  62    6.3465891176385e-06
  63    1.8430047379726e-05
  64    -0.00023187697945435
  65    -8.5174148707493e-07
  66    5.4675540483445e-06
  67    -2.6648469845359e-06
  68    2.5554981328477e-05
  69    2.1437931872902e-05
  70    3.3042040186375e-05
  71    -8.8057731218957e-06
  72    -1.1292985431504e-05
  73    1.5238181074486e-05
  74    2.3524395143589e-05
  75    -4.515171402812e-06
  76    -1.9863009705004e-05
  77    0.00039518128358952
  78    9.7248562322653e-05
  79    6.2131455356723e-05
  80    -2.4805425355007e-07
  81    -1.5619939943415e-06
  82    1.2231166789265e-05
  83    -0.00018181947709119
  84    2.8699165934011e-05
  85    -3.8817376097223e-07
  86    1.5881195910286e-05
  87    7.5012871924985e-05
  88    1.0533105728118e-05
  89    -0.00010891971506222
  90    -1.9374897551224e-05
  91    1.5047804887595e-05
  92    1.5702377463448e-07
  93    3.2289107652339e-05
  94    -9.2748266517291e-06
 Sym= A
 Ene=               1
 Spin= Alpha
 Occup=    1.00000
   1       1.0019134142294
   2    0.0042288380533657
   3    -0.0074608439010591
   4    -0.00058688329736874
   5    0.0010810428593005
   6    4.344226984604e-05
   7    -0.0015850548976796
   8    0.0005923371812717
   9    0.00011957930968719
  10    0.00032509898777301
  11    7.5391889740404e-06
  12    3.8075298268409e-06
  13    -0.00010009112016338
  14    -0.00011547789444944
  15    -0.00023055375515486
  16    3.2258476053519e-05
  17    0.0032803085001358
  18    -0.00047939465534054
  19    -1.8223562214845e-05
  20    -1.4230310533991e-06
  21    -0.0015975754586584
  22    -9.9608938602095e-05
  23    -0.00035194824921543
  24    -8.0147643593621e-05
  25    -2.3836068765184e-05
  26    -8.4566761571219e-06
  27    5.2465488539588e-05
  28    0.00011453339129382
  29    -1.986674168791e-05
  30    0.00039517143268482
  31    -9.7249292418376e-05
  32    2.4813197945212e-07
  33    -6.2131591865434e-05
  34    6.3424123095616e-06
  35    1.8427375396164e-05
  36    -0.00023188156537994
  37    8.4834259261109e-07
  38    2.6667699569225e-06
  39    -5.4701685204649e-06
  40    -2.5554637754952e-05
  41    -3.3040754828795e-05
  42    -2.1440129486504e-05
  43    -1.597010351647e-05
  44    -4.5155485873638e-06
  45    1.5238215067798e-05
  46    1.9388410549526e-05
  47    -1.129360898801e-05
  48    -1.5611409936991e-06
  49    1.2229854664182e-05
  50    -0.00018182179252177
  51    -2.8700651293427e-05
  52    -1.5877228310951e-05
  53    3.8905860265111e-07
  54    -7.5010844964702e-05
  55    0.00010892249818843
  56    -1.0532405186041e-05
  57    -1.8275804493853e-05
  58    -9.2752337803731e-06
  59    1.5706018243534e-07
  60    3.2923865087218e-05
  61    1.5048262476619e-05
  62    0.00015460388968432
  63    0.00067506875471366
  64    -0.00014431766098899
  65    7.3529839383015e-05
  66    -0.00014971669631534
  67    -0.00030092839656725
  68    -0.00013954356114993
  69    0.0004429373479299
  70    0.00075132575357722
  71    -9.3247681506314e-05
  72    7.1587773309981e-05
  73    -0.0001168824209853
  74    8.6596301766441e-06
  75    3.1222358670442e-05
  76    0.00093094118264875
  77    0.0015146968116534
  78    0.00021831776696254
  79    5.7995876025274e-05
  80    -1.0760303347159e-05
  81    0.00014163612408383
  82    0.00064822316782898
  83    -4.4796307456893e-05
  84    8.3725551193269e-05
  85    -0.00014588111719023
  86    0.00030546894012981
  87    -0.00016277990215232
  88    0.00040097805035631
  89    -0.00074329818590293
  90    -9.1720088395225e-05
  91    -6.8949979257929e-05
  92    0.00011215036923982
  93    4.1834273358881e-06
  94    2.9416804317222e-05
 Sym= A
 Ene=               2
 Spin= Alpha
 Occup=    1.00000
   1    -0.00018490978242073
   2    0.00028015649311685
   3    0.0035622666126971
   4    -0.00039220065049609
   5    0.00049633344505083
   6    0.0008054584168717
   7    0.00018913390275777
   8    0.0011268110000546
   9    0.0011489742802446
  10    7.5181028354702e-05
  11    -6.9415684533648e-05
  12    8.8225490011654e-05
  13    1.4306120856983e-06
  14    -6.5994798787368e-05
  15    6.8339880248587e-05
  16    9.2051468949403e-05
  17    -0.0014519537006148
  18    0.0001438101049604
  19    2.1143718352019e-05
  20    2.6165630315383e-05
  21    0.00064581393496948
  22    -0.00021767462929804
  23    -0.00018918774170215
  24    7.9630604134156e-05
  25    3.0475452468296e-05
  26    4.0187892377395e-05
  27    -3.470916491369e-05
  28    1.5752909432451e-05
  29    4.7964828675435e-05
  30    9.2198814891636e-06
  31    4.6867221529601e-05
  32    3.2771040936159e-06
  33    5.5509961631054e-06
  34    -2.9892160132741e-05
  35    -5.2672086099757e-05
  36    0.00016025934352037
  37    1.8308831519715e-05
  38    7.2984857741036e-06
  39    8.6570996950468e-06
  40    -0.00017144073444463
  41    3.3915660279348e-05
  42    2.6857720811877e-05
  43    5.8775895303557e-06
  44    -4.8282305495782e-07
  45    5.7586555934871e-06
  46    3.2601837914129e-06
  47    1.7556945178995e-06
  48    1.1688214780338e-05
  49    2.6991451055983e-05
  50    7.2084063350485e-05
  51    -3.3709882192826e-05
  52    -2.0597319578753e-06
  53    6.6288645234421e-06
  54    6.9886056532072e-05
  55    -4.4514179726337e-05
  56    8.7952747505229e-06
  57    1.1257351983478e-05
  58    8.3064314564745e-06
  59    -3.1467313202595e-06
  60    -1.4394181254566e-05
  61    2.7232954629794e-06
  62       1.0010267570294
  63    0.00088144182268884
  64    -0.0056672906346631
  65    0.00073734560923335
  66    -0.0011568356013229
  67    -0.0018618452224768
  68    -0.00027678745949675
  69    0.00025272272257371
  70    0.00058169219181741
  71    -7.1044857054118e-05
  72    5.9965190508564e-05
  73    -8.4029794083846e-05
  74    2.3887420007839e-05
  75    4.0577206854702e-05
  76    -0.00021301784870187
  77    -6.322760379297e-05
  78    1.231538480953e-05
  79    -9.4954510633942e-05
  80    -0.00012884532620038
  81    9.8026228463097e-05
  82    0.00016417510690136
  83    -0.00070929321381433
  84    -6.2596968737695e-06
  85    4.2297094498388e-05
  86    -3.3447429385638e-05
  87    -2.9295221951541e-05
  88    -0.00014296345652079
  89    -0.00041673239714397
  90    -2.4156627919159e-05
  91    -1.1583474139473e-05
  92    2.5506280305902e-06
  93    -7.3661378680252e-06
  94    -1.2430639461237e-05
 Sym= A
 Ene=               3
 Spin= Alpha
 Occup=    1.00000
   1    6.8327498399035e-05
   2    9.1573337831939e-05
   3    -0.0014532518219824
   4    -0.00014470747154177
   5    -2.6914645213576e-05
   6    -2.1567775749118e-05
   7    -0.00064758434421408
   8    0.0001878319252805
   9    0.00021699076905268
  10    -9.8000996397171e-06
  11    1.5439304270607e-05
  12    4.0234924945515e-05
  13    -8.6241819125649e-05
  14    3.0106226513842e-05
  15    -0.00018384545551449
  16    0.00028856763773612
  17    0.0035646141460037
  18    0.00039596121141756
  19    -0.00081522776894356
  20    -0.00050225977432386
  21    -0.0001899391861603
  22    -0.0011492546745456
  23    -0.0011259995058312
  24    -3.8728963142965e-05
  25    -6.5922068913588e-05
  26    8.9068687331807e-05
  27    -6.4959494808163e-05
  28    -6.9399102399424e-05
  29    -0.00021250482132765
  30    -6.4687253413915e-05
  31    -1.2074695399807e-05
  32     0.000128468173511
  33    9.4727382477851e-05
  34       1.0010267316042
  35    0.00083538178693464
  36    -0.0057215227191978
  37    -0.00075729530665569
  38    0.0018887950617931
  39    0.0011720723989201
  40    0.00026333597961761
  41    -0.00056361906063896
  42    -0.00024265806713739
  43    1.4673688406852e-05
  44    4.021283815191e-05
  45    -8.3393038889944e-05
  46    7.3103998191013e-05
  47    5.936840663247e-05
  48    9.7970483109392e-05
  49    0.00016400513577646
  50    -0.00070902614442869
  51    6.4893042181406e-06
  52    3.3635383848245e-05
  53    -4.2431413717112e-05
  54    2.9351120699946e-05
  55    0.00041693381223227
  56    0.00014290973672339
  57     1.83506117888e-05
  58    -1.2366798388306e-05
  59    2.5320612696913e-06
  60    1.7091868414333e-05
  61    -1.1565304689424e-05
  62    -2.9879771397026e-05
  63    -5.2493175603641e-05
  64    0.00016092510653589
  65    -1.7897900595671e-05
  66    -8.8000224118053e-06
  67    -7.5269163854047e-06
  68    0.00017184424790148
  69    -2.6866095339813e-05
  70    -3.4121854835428e-05
  71    -5.7562006657331e-06
  72    1.7830138452644e-06
  73    5.7480501565974e-06
  74    -3.4820231479412e-06
  75    -4.6881344737257e-07
  76    4.8030552002565e-05
  77    7.6996528646662e-06
  78    -4.6877693005892e-05
  79    -5.5978223018479e-06
  80    -3.263884474665e-06
  81    1.1663004645781e-05
  82    2.6973922163844e-05
  83    7.2339710983687e-05
  84    3.3803871640696e-05
  85    -6.5134812111274e-06
  86    2.1179800888584e-06
  87    -6.9478889130269e-05
  88    -8.5782137784534e-06
  89    4.468233176831e-05
  90    6.8379148406922e-06
  91    2.702476128049e-06
  92    -3.149943500082e-06
  93    -1.6957458142535e-05
  94    8.3028392223607e-06
 Sym= A
 Ene=               4
 Spin= Alpha
 Occup=    1.00000
   1    4.956772044436e-05
   2    5.7658427071342e-05
   3    -0.0013418132322728
   4    -0.00014588244675237
   5    -6.2321471046352e-07
   6    7.1872314891775e-06
   7    -0.00048811332448566
   8    -0.00033475873375132
   9    0.00032714637795806
  10    3.9703143769263e-06
  11    3.5434778485599e-05
  12    -4.999901024046e-05
  13    -6.0097259474778e-05
  14    -1.8610486435935e-06
  15    -0.00017948757545205
  16    0.00029888503759932
  17     0.003419436281576
  18    0.00041275882745227
  19    0.00081575932824478
  20    -0.0005133134430604
  21    -0.0001360412617996
  22     0.001218330451764
  23    -0.001081720851593
  24    -2.8291962943601e-05
  25    -4.5761584388219e-05
  26    -8.9074492813786e-05
  27    -5.8752330294217e-05
  28    7.2718347841994e-05
  29    -0.00024097844817359
  30    -7.6171193186094e-05
  31    -4.2444811263334e-06
  32    -0.00013435362160252
  33    9.7623150500647e-05
  34    9.3277763193393e-05
  35    0.00015466053097924
  36    -0.0006622656494285
  37    -2.876429351466e-08
  38    -3.7574155282566e-05
  39    -4.0619832836822e-05
  40    4.6873388640077e-05
  41    -0.0004002362502304
  42    0.00014265471281955
  43    1.894553144289e-05
  44    -1.1511637201814e-05
  45    -2.0509361736553e-06
  46    1.3848424744225e-05
  47    1.2061054380834e-05
  48       1.0010195972987
  49    0.00078889706856105
  50    -0.0057326333219542
  51    -0.00069818985900782
  52    -0.0019253337018309
  53     0.001197058621714
  54    0.00026795440732857
  55    0.00054383810772402
  56    -0.0002612780943224
  57    1.1992291504282e-05
  58    4.4728265587164e-05
  59    8.4615447406672e-05
  60    7.1654500228372e-05
  61    -6.1190791235126e-05
  62    1.0897241756381e-05
  63    2.6783382778348e-05
  64    5.3008163913736e-05
  65    2.9145544427134e-05
  66    -8.8965904991045e-06
  67    -6.0769424564641e-06
  68    -4.1222031599813e-05
  69    4.2170934724492e-06
  70    -4.8699314812598e-05
  71    1.4327014542016e-05
  72    6.3039784572802e-06
  73    2.8784636005347e-06
  74    -9.2821308213003e-06
  75    -4.8423114028221e-06
  76    3.5879680040124e-05
  77    3.9287507773894e-05
  78    2.457715092536e-05
  79    1.3851714007692e-05
  80    -4.8081212440332e-05
  81    -3.3063882705309e-05
  82    -6.8526649553809e-05
  83    0.00024716048545378
  84    -1.4328209087322e-06
  85    -6.2208020232388e-07
  86    -3.4441199054189e-05
  87    -5.7190080876024e-05
  88    2.1498514185925e-06
  89    9.0133356573894e-05
  90    3.5044315140806e-06
  91    -5.4647234096132e-06
  92    4.2326042696474e-06
  93    -1.9844129994147e-05
  94    2.8900692546913e-06
 Sym= A
 Ene=               5
 Spin= Alpha
 Occup=    1.00000
   1    -0.00017926667202737
   2    0.00030051512779074
   3    0.0034196961864034
   4    -0.00041357092850642
   5    0.00051450091991339
   6    -0.00081720377463784
   7    0.00013554834742903
   8    0.0010817651204834
   9    -0.0012183681938873
  10    6.4833544973016e-05
  11    7.3122079681152e-05
  12    -8.9121053687623e-05
  13    -4.6653645318223e-06
  14    -4.6011464832415e-05
  15    4.9630954689713e-05
  16    5.8049967764273e-05
  17    -0.0013413252295233
  18    0.00014525102121761
  19    -7.068296102956e-06
  20    4.2316525759096e-07
  21    0.00048773024562383
  22    -0.00032712359868648
  23    0.00033499282575639
  24    5.0037876595849e-05
  25    -1.7704186568919e-06
  26    -4.9982938606404e-05
  27    -3.344886040876e-05
  28    3.5337884162719e-05
  29    3.5673375380457e-05
  30    3.9059056361023e-05
  31    -2.4591259084407e-05
  32    4.8084493357777e-05
  33    -1.3816157647178e-05
  34    1.0884856986463e-05
  35    2.6766099849558e-05
  36    5.3135864804123e-05
  37    -2.9136103007403e-05
  38    6.0827983712583e-06
  39    8.8829330415319e-06
  40    4.1245416107724e-05
  41    4.8730052142248e-05
  42    -4.2331565734037e-06
  43    8.6988479870126e-07
  44    -4.8460425660184e-06
  45    2.8755202116645e-06
  46    -1.704848612585e-05
  47    6.2961558527968e-06
  48    -3.3054330379411e-05
  49    -6.8440317374349e-05
  50    0.00024727367159827
  51    1.2467648805205e-06
  52    3.4436190228391e-05
  53    5.1615648644489e-07
  54    5.7172296687338e-05
  55    -9.0217563322006e-05
  56    -2.1654431122406e-06
  57    1.5433783032874e-05
  58    2.8689473871902e-06
  59    4.2260672247008e-06
  60    -1.2976971482816e-05
  61    -5.4541634459533e-06
  62    9.3278605724565e-05
  63    0.00015452437605232
  64    -0.00066252224130299
  65    -4.1871472116904e-08
  66    4.0756020088294e-05
  67    3.793218376139e-05
  68    -4.6879499717171e-05
  69    -0.00014258633920782
  70    0.00040060214944663
  71    -2.1434999681549e-05
  72    1.2066018166362e-05
  73    -2.0478712240716e-06
  74    -9.4750077266864e-06
  75    -1.1508468218562e-05
  76    -0.00024130114059738
  77    -7.6858511472895e-05
  78    4.2221211877133e-06
  79    -9.7589742893097e-05
  80    0.00013431761707881
  81       1.0010196048983
  82    0.0007810541072643
  83    -0.0057420620049934
  84    0.00069245225114352
  85    -0.0012006819661274
  86    0.0019329116537225
  87    -0.00027197575343356
  88    0.0002588850826096
  89    -0.00053877223706983
  90    -6.7885100457533e-05
  91    -6.1228424698076e-05
  92    8.4454555957179e-05
  93    2.5361998598834e-05
  94    4.4765118680857e-05
 Sym= A
 Ene=               6
 Spin= Alpha
 Occup=    1.00000
   1    0.0011276128330711
   2     0.025673862327051
   3     0.077695330952036
   4     0.048756437591206
   5    0.0057397611200556
   6    -0.004597071939484
   7     0.050955091975571
   8    -0.016750814408079
   9    0.0021610522186626
  10    0.00021882176147797
  11    -0.0022549877430972
  12    0.0006819245512361
  13    0.0013131226690339
  14     0.001290721814024
  15    0.0026401858646805
  16    -0.00012261452683546
  17    -0.033728235642078
  18      0.00200112473225
  19    -0.0013020486378568
  20    0.0031805610761463
  21     0.043656279625712
  22     0.019531457739432
  23     0.006840163847851
  24    -0.024255974985462
  25    -0.010810209627148
  26     0.017993806389728
  27     0.011100209422665
  28     0.026875790260385
  29    -0.050439259934511
  30     -0.04728770106332
  31    -0.0020494225773952
  32    -0.0031082159314105
  33    0.00039659544227438
  34    -0.00073069409975367
  35    8.5153393726165e-05
  36     0.009946228335468
  37    -0.0037586667617463
  38    0.0026331372870222
  39    -0.0013638042295075
  40    -0.0068053644181249
  41    0.0016053928788228
  42    0.0015467976791758
  43    -0.00052958322893125
  44    -0.00024725425368293
  45    0.00033582627955447
  46    0.0003675881025114
  47    0.00034825027416902
  48    0.0010099391322877
  49    0.0068423971501973
  50    -0.0028590746377836
  51      0.54571357668578
  52      0.03209840630459
  53      0.38774874272758
  54      0.37755720695472
  55     0.024552754457313
  56      0.26648887197513
  57    0.0072031939913289
  58    0.0031516245546824
  59    -0.0061651900262035
  60    -0.0030897107059822
  61    -0.009803382285249
  62    -0.00022227303311418
  63    -0.00094137659728852
  64    0.00050876314004457
  65    -0.0037862121528676
  66    0.00070488642187766
  67     0.001614701192556
  68    -0.0085374195285203
  69    0.0029025957160652
  70    0.00031233081744324
  71    7.9622639080864e-06
  72    -0.00056388650848946
  73    -0.00023158532165696
  74    0.00033105990078843
  75    -0.00030112743606994
  76     -0.01443634946984
  77    -0.017269198561769
  78     0.002366552493299
  79    -0.00098599001279563
  80    -0.00059620965772496
  81    0.0012232559924437
  82    0.0070396149249384
  83     0.004315308972283
  84     0.011522966602518
  85    0.0029216043690108
  86    0.00084567731912538
  87    -0.0017235064340443
  88     0.001225364915413
  89    0.0042694353753569
  90    0.0010923647413922
  91    0.0007380284502377
  92    -0.00025408103004645
  93    -0.0010417641111064
  94    -0.0012022303076425
 Sym= A
 Ene=               7
 Spin= Alpha
 Occup=    1.00000
   1    -0.0026385260410011
   2    0.00013316452594333
   3     0.033727161343453
   4     0.001997672258585
   5    0.0031866824998905
   6    -0.0013199068341378
   7     0.043657470734698
   8    0.0068351909490805
   9     0.019524971729078
  10    -0.0025099440249757
  11    -0.026876633078455
  12    -0.017992942306808
  13    -0.026555766837274
  14      0.01081188017172
  15    -0.0011278060868996
  16    -0.025675440949604
  17    -0.077697617340976
  18     0.048759895259059
  19    -0.0045961337894451
  20    0.0057395397410481
  21     0.050956520280882
  22    0.0021635972431651
  23     -0.01675177966652
  24    0.0012467537556085
  25    -0.0012899978550972
  26    -0.00068192673886187
  27    -0.00046676428651603
  28    0.0022545011827476
  29     0.014438262959408
  30     0.017272106355571
  31    0.0023666934933314
  32    -0.0005962882445146
  33    -0.00098602993008989
  34    0.00022223007830077
  35    0.00094120032197961
  36    -0.00050832307963047
  37    -0.0037860765981028
  38    0.0016141905546077
  39    0.00070520782009049
  40    -0.0085374851312109
  41    0.00031196910041087
  42    0.0029029182871591
  43    0.00029071571389234
  44    0.00030121908893754
  45    0.00023157802490089
  46    -0.00015865343583253
  47    0.00056392647655937
  48    -0.0012231059938612
  49    -0.0070395571770758
  50    -0.0043169432025425
  51     0.011522423956004
  52    0.00084669920638992
  53     0.002921476344195
  54    -0.0017236897834923
  55    0.0042700897002555
  56    0.0012251911042334
  57    -0.00035599229571354
  58    0.0012022887846725
  59    0.00025408164607653
  60    0.0014669027736422
  61    -0.00073800768515531
  62    0.00073026917971282
  63    -8.4042685379231e-05
  64    -0.009939431366507
  65    -0.0037577276355327
  66    -0.0013650797813718
  67    0.0026279356809365
  68    -0.006804296301092
  69    0.0015454468592226
  70    0.0016004529225498
  71    5.3814520533826e-05
  72    -0.00034833173066557
  73    -0.00033573001765525
  74    -0.00064234482489849
  75    0.00024740640219442
  76     0.050436287266164
  77     0.047282247675951
  78    -0.0020496497411779
  79    0.00039694154454975
  80    -0.0031085179891439
  81    -0.0010006388023811
  82    -0.0069102793098199
  83    0.0027790616494717
  84      0.54577089701291
  85      0.38766685905734
  86      0.03208906318245
  87      0.37759654237261
  88      0.26643310152761
  89     0.024545601552877
  90    0.00092488071555063
  91    0.0098043714446822
  92    0.0061637624452101
  93    0.0077824673504522
  94    -0.0031529689787859
 Sym= A
 Ene=               8
 Spin= Alpha
 Occup=    1.00000
   1    0.0025913448876452
   2      0.03491143300722
   3      0.07538422923611
   4     0.044129463880924
   5    -0.0060140133407904
   6    -0.00050661228601795
   7     0.027672101669625
   8     0.014019982963382
   9     0.018437930418633
  10    -0.0013434374806902
  11    -0.0014147248283942
  12    -0.0016223093985718
  13    0.0015834478808867
  14    -0.00017190349111318
  15    0.0028798344535471
  16    0.0033293739871514
  17    -0.015048999811405
  18    0.0005443407476645
  19    -0.00023126588363891
  20    -0.00030295449016946
  21     0.035615295908966
  22     -0.01775393236295
  23    0.0058702243574945
  24    -0.022838347788938
  25     -0.01078236419383
  26    -0.017005427524165
  27     0.012149649754259
  28     -0.02632479328376
  29    -0.051246121902278
  30    -0.049703043508116
  31    -0.0016437661337814
  32     0.002979258654598
  33     0.001015709196848