[Molden Format]
made by pyscf v[2.0.1]
[Atoms] (AU)
C   1   6     0.00000000000000     0.00000000000000     0.00000000000000
C   2   6     2.85272299873892     0.00000000000000     0.00000000000000
H   3   1     3.62066923017674     0.00000000000000     1.90331545357504
F   4   9     3.65943188126013    -2.04308229183900    -1.24074875274501
F   5   9     3.65943188126013     2.04308229183900    -1.24074875274501
F   6   9    -0.80670888252121     0.76755391149953     2.26373667011121
H   7   1    -0.76794623143782     1.22342759088295    -1.45802422671364
F   8   9    -0.80670888252121    -2.36262976149657    -0.36279929541697
[GTO]
1 0
 s    8 1.00
                  6665  0.00069158396281299
                  1000  0.0053257961529341
                   228   0.027060721042034
                 64.71    0.10165684614077
                 21.06     0.2745748236174
                 7.495    0.44829431892377
                 2.797    0.28490261071525
                0.5215   0.015194859206082
 s    8 1.00
                  6665  -0.00029326965268655
                  1000  -0.0023180354739745
                   228  -0.011499786038565
                 64.71  -0.046826727009787
                 21.06   -0.12846616875047
                 7.495   -0.30126627246289
                 2.797   -0.25563070233011
                0.5215      1.093793361012
 s    1 1.00
                0.1596                   1
 p    3 1.00
                 9.439   0.056979251590039
                 2.002    0.31320721150073
                0.5456    0.76037674173753
 p    1 1.00
                0.1517                   1
 d    1 1.00
                  0.55                   1

2 0
 s    8 1.00
                  6665  0.00069158396281299
                  1000  0.0053257961529341
                   228   0.027060721042034
                 64.71    0.10165684614077
                 21.06     0.2745748236174
                 7.495    0.44829431892377
                 2.797    0.28490261071525
                0.5215   0.015194859206082
 s    8 1.00
                  6665  -0.00029326965268655
                  1000  -0.0023180354739745
                   228  -0.011499786038565
                 64.71  -0.046826727009787
                 21.06   -0.12846616875047
                 7.495   -0.30126627246289
                 2.797   -0.25563070233011
                0.5215      1.093793361012
 s    1 1.00
                0.1596                   1
 p    3 1.00
                 9.439   0.056979251590039
                 2.002    0.31320721150073
                0.5456    0.76037674173753
 p    1 1.00
                0.1517                   1
 d    1 1.00
                  0.55                   1

3 0
 s    3 1.00
                 13.01   0.033498726389998
                 1.962    0.23480080117413
                0.4446     0.8136829578829
 s    1 1.00
                 0.122                   1
 p    1 1.00
                 0.727                   1

4 0
 s    8 1.00
                 14710  0.00072067370873197
                  2207  0.0055504869689163
                 502.8   0.028254207662589
                 142.6    0.10639582836653
                 46.47    0.28668420124307
                  16.7    0.44843796582416
                 6.356    0.26464118141135
                 1.316   0.015326060993048
 s    8 1.00
                 14710  -0.00032119389049893
                  2207  -0.0025461915683188
                 502.8  -0.012643359507821
                 142.6   -0.05195749170489
                 46.47   -0.14344713812646
                  16.7   -0.33243762329603
                 6.356   -0.21865906750347
                 1.316     1.0955904138622
 s    1 1.00
                0.3897                   1
 p    3 1.00
                 22.67   0.064834021493887
                 4.977    0.34053535983101
                 1.347    0.73464640679382
 p    1 1.00
                0.3471                   1
 d    1 1.00
                  1.64                   1

5 0
 s    8 1.00
                 14710  0.00072067370873197
                  2207  0.0055504869689163
                 502.8   0.028254207662589
                 142.6    0.10639582836653
                 46.47    0.28668420124307
                  16.7    0.44843796582416
                 6.356    0.26464118141135
                 1.316   0.015326060993048
 s    8 1.00
                 14710  -0.00032119389049893
                  2207  -0.0025461915683188
                 502.8  -0.012643359507821
                 142.6   -0.05195749170489
                 46.47   -0.14344713812646
                  16.7   -0.33243762329603
                 6.356   -0.21865906750347
                 1.316     1.0955904138622
 s    1 1.00
                0.3897                   1
 p    3 1.00
                 22.67   0.064834021493887
                 4.977    0.34053535983101
                 1.347    0.73464640679382
 p    1 1.00
                0.3471                   1
 d    1 1.00
                  1.64                   1

6 0
 s    8 1.00
                 14710  0.00072067370873197
                  2207  0.0055504869689163
                 502.8   0.028254207662589
                 142.6    0.10639582836653
                 46.47    0.28668420124307
                  16.7    0.44843796582416
                 6.356    0.26464118141135
                 1.316   0.015326060993048
 s    8 1.00
                 14710  -0.00032119389049893
                  2207  -0.0025461915683188
                 502.8  -0.012643359507821
                 142.6   -0.05195749170489
                 46.47   -0.14344713812646
                  16.7   -0.33243762329603
                 6.356   -0.21865906750347
                 1.316     1.0955904138622
 s    1 1.00
                0.3897                   1
 p    3 1.00
                 22.67   0.064834021493887
                 4.977    0.34053535983101
                 1.347    0.73464640679382
 p    1 1.00
                0.3471                   1
 d    1 1.00
                  1.64                   1

7 0
 s    3 1.00
                 13.01   0.033498726389998
                 1.962    0.23480080117413
                0.4446     0.8136829578829
 s    1 1.00
                 0.122                   1
 p    1 1.00
                 0.727                   1

8 0
 s    8 1.00
                 14710  0.00072067370873197
                  2207  0.0055504869689163
                 502.8   0.028254207662589
                 142.6    0.10639582836653
                 46.47    0.28668420124307
                  16.7    0.44843796582416
                 6.356    0.26464118141135
                 1.316   0.015326060993048
 s    8 1.00
                 14710  -0.00032119389049893
                  2207  -0.0025461915683188
                 502.8  -0.012643359507821
                 142.6   -0.05195749170489
                 46.47   -0.14344713812646
                  16.7   -0.33243762329603
                 6.356   -0.21865906750347
                 1.316     1.0955904138622
 s    1 1.00
                0.3897                   1
 p    3 1.00
                 22.67   0.064834021493887
                 4.977    0.34053535983101
                 1.347    0.73464640679382
 p    1 1.00
                0.3471                   1
 d    1 1.00
                  1.64                   1

[5d]
[7f]
[9g]

[MO]
 Sym= A
 Ene=               0
 Spin= Alpha
 Occup=    1.00000
   1    -0.0002235007250737
   2    5.0714075248475e-05
   3      0.00323922107114
   4    0.0004717394605732
   5    1.4785104196207e-05
   6    5.5207125476841e-06
   7    0.0015793553796382
   8    -0.00019829316365755
   9    0.00038685160273483
  10    -2.8355624030153e-05
  11    0.00010547850476382
  12    1.4867051841996e-05
  13    7.8055551792497e-05
  14    1.1296902447507e-05
  15       1.0019125690949
  16    0.0042298468931247
  17    -0.0074450803562138
  18    0.00057044426775758
  19    5.3307917551531e-05
  20    -0.0011229948032653
  21    0.0015820086771371
  22    8.5513249261954e-05
  23    -0.00071429357441248
  24    -8.3057336124564e-05
  25    -0.00011326643441255
  26    -1.1479526173481e-05
  27    -0.00033355341887893
  28    2.1047827166926e-06
  29    0.00096487636018584
  30    0.0015486326626271
  31    -0.00022003836713946
  32    -1.1407586300174e-05
  33    -7.2618895980448e-05
  34    0.00014391769368817
  35    0.00065299101101606
  36    -7.3375228584985e-05
  37    -7.896598547509e-05
  38    0.0003066205754756
  39    0.00014324671508224
  40    0.00014399779957454
  41    -0.0007539488758365
  42    -0.00039398159331906
  43    4.1635413410489e-05
  44    2.9616553843834e-05
  45    -0.00011068444439555
  46    8.2811543340169e-05
  47    6.8750408107409e-05
  48    0.00016266342694453
  49    0.00069027293700263
  50    -0.00019247412503803
  51    -7.3657254899801e-05
  52    -0.00030249930249678
  53    0.00014288896659427
  54    0.0001498645688531
  55    0.00078109583611555
  56    -0.00042159796485829
  57    4.1582127320706e-05
  58    3.1347767909003e-05
  59    0.00011831848478922
  60    8.7745530922987e-05
  61    -7.3783870364225e-05
  62    1.1236715446727e-05
  63    2.586038438573e-05
  64    -0.00026130931796843
  65    -2.6297103776995e-06
  66    -9.4591592680756e-06
  67    9.2338819657516e-06
  68    1.0962776739376e-05
  69    7.3769379579477e-05
  70    8.4772903610306e-06
  71    1.1674767852536e-06
  72    -1.2040558164555e-05
  73    7.004292798732e-06
  74    2.7020991284928e-05
  75    6.058511066659e-07
  76    -4.1733743391884e-05
  77    0.00041965461581662
  78    9.6917630887391e-05
  79    -1.5223302183123e-05
  80    2.5841874363367e-05
  81    -1.0359454547124e-05
  82    -7.2346129453116e-06
  83    -0.00013308938308097
  84    1.5445727806929e-05
  85    8.621533299514e-06
  86    1.1385941749002e-05
  87    8.9293649107457e-05
  88    -6.2976138328288e-05
  89    -6.3499907958712e-05
  90    -2.4197941557298e-05
  91    1.3190155583812e-06
  92    2.3508248528866e-06
  93    2.561202381526e-05
  94    1.7552536284729e-05
 Sym= A
 Ene=               1
 Spin= Alpha
 Occup=    1.00000
   1       1.0019125690218
   2    0.0042298472912763
   3    -0.0074450821353982
   4    -0.00057044773362092
   5    -0.00068101020276804
   6    0.00089452906417904
   7    -0.0015820101833812
   8    -0.00039363209663357
   9    0.00060214701380011
  10    9.7561700865298e-05
  11    -8.8119928545901e-05
  12    0.00023707339033728
  13    -0.0002292732120982
  14    7.1194025055901e-05
  15    -0.00022350203383017
  16    5.0712686642716e-05
  17     0.003239221266738
  18    -0.00047173829488663
  19    1.4872580696988e-05
  20    5.2761899493072e-06
  21    -0.0015793558588699
  22    9.6761853705882e-05
  23    -0.00042380546272742
  24    -5.1391093841411e-05
  25    7.3540141357568e-05
  26    -1.6832514457067e-05
  27    6.4755507773037e-05
  28    -7.6454303720386e-05
  29    -4.173212616009e-05
  30    0.00041965581703399
  31    -9.6917625409343e-05
  32    4.9490475739926e-06
  33    -2.9581408308372e-05
  34    -1.035929715338e-05
  35    -7.2349952004148e-06
  36    -0.00013308984806186
  37    -1.5453417277342e-05
  38    1.392207683375e-05
  39    -3.1802838282542e-06
  40    -8.9298992161429e-05
  41    -8.90602222455e-05
  42    8.1634009627026e-06
  43    -2.0370372586385e-05
  44    -1.02722060457e-05
  45    7.6179911628223e-06
  46    2.7821937467671e-05
  47    -1.42939840061e-05
  48    1.123677559446e-05
  49    2.5858720427918e-05
  50    -0.0002613106425092
  51    2.6264340271733e-06
  52    -1.3077198485467e-06
  53    -1.3156363843453e-05
  54    -1.0965173077548e-05
  55    6.1961520002388e-05
  56    4.0922341437412e-05
  57    -1.5198489621524e-05
  58    -9.6130132677183e-06
  59    -1.5517112978536e-05
  60    1.7572188504173e-05
  61    7.2753989408075e-06
  62    0.00016266310271802
  63    0.00069027321524466
  64    -0.00019247365159429
  65    7.365854768819e-05
  66    -0.00013988218359069
  67    -0.00030390255517309
  68    -0.00014986351083516
  69    0.00032735508244471
  70    0.00082504121178882
  71    -0.00011649621028338
  72    7.1441140502649e-05
  73    -9.9216072813153e-05
  74    -3.5210832411232e-06
  75    3.637175970558e-05
  76    0.00096487836119953
  77    0.0015486337679905
  78    0.00022003840842708
  79    -5.5417314286265e-05
  80    4.829680384442e-05
  81    0.00014391669523432
  82    0.0006529925842699
  83    -7.3373424941871e-05
  84    7.8963482725786e-05
  85    0.00032696342122499
  86    8.7357575587611e-05
  87    -0.00014399933596774
  88    -0.00083080408774673
  89    -0.00018282222396714
  90    8.0598845334795e-05
  91    -2.1504343622165e-05
  92    -5.7066123400772e-05
  93    0.00010530703072959
  94    -7.1703090980399e-05
 Sym= A
 Ene=               2
 Spin= Alpha
 Occup=    1.00000
   1    -0.00019938830382734
   2    0.00027180137240012
   3    0.0038691085156049
   4    -0.00039546752008215
   5    -0.00096306101749695
   6    -0.0001362358329947
   7    0.00029447730586158
   8     -0.00165393213415
   9    9.1728672754645e-05
  10    -6.6271639692529e-05
  11    -1.161541557072e-05
  12    4.6354666994562e-05
  13    -7.4866526246467e-05
  14    8.7505411572036e-05
  15    7.106203577835e-05
  16    8.6785696899819e-05
  17    -0.0016813559687737
  18    0.00011514903749316
  19    -3.4375889399087e-06
  20    -7.4727977247665e-07
  21    0.00084762053486769
  22    0.00044430857429932
  23    7.8251810825204e-05
  24    -1.8834068290745e-05
  25    -4.4734249416628e-06
  26    3.2391842438541e-05
  27    -7.1973081474768e-05
  28    -2.5806237801603e-05
  29    0.00013440131585997
  30    -0.00011843803626591
  31    -7.1663781765439e-06
  32    -3.9932137708442e-05
  33    -1.251814597888e-05
  34    -4.4240035976047e-05
  35    -8.9716940178812e-05
  36    0.00028458129232211
  37    2.4808272986669e-05
  38    -1.3533001623768e-05
  39    -2.9954439671553e-05
  40    -4.4105998939284e-05
  41    4.0640686514553e-05
  42    7.8328136886485e-05
  43    1.0465024729435e-05
  44    3.2152929997261e-06
  45    -7.8502064310849e-06
  46    -1.1796675863962e-05
  47    -6.198870114729e-07
  48    -2.1141093615972e-05
  49    -3.4766380966987e-05
  50    0.00012565787994954
  51    1.598561606525e-05
  52    -1.0554961333793e-05
  53    8.0378186980864e-06
  54    -0.00017813406551764
  55    -5.6600484665024e-05
  56    -1.408626879336e-05
  57    -1.0022398639069e-05
  58    -1.1774017455277e-06
  59    3.7628553897868e-06
  60    -7.70632343137e-06
  61    4.0104042665161e-06
  62    0.00010139773169946
  63    0.00016959948632672
  64    -0.00073204721954975
  65    -2.6717199239588e-06
  66    -1.5112804914084e-07
  67    5.6262306535009e-05
  68    -4.5164700945655e-05
  69    0.00042046817530245
  70    0.00017260595451103
  71    -2.5588347077518e-06
  72    -1.2333011293056e-06
  73    -2.5214712224481e-05
  74    6.4428216920142e-06
  75    1.6924979976747e-05
  76    -0.00023852938174456
  77    -7.1440218683839e-05
  78    8.0982567847895e-06
  79    0.00016406086395726
  80    9.1477320820226e-06
  81        1.001028820114
  82    0.00078209755775578
  83    -0.005821962467581
  84    0.00070285196691526
  85    0.0022625696884278
  86    0.00033648548703377
  87    -0.00027678154932813
  88    -0.00057794128122891
  89    -0.00018057504916269
  90    4.8955577598681e-05
  91    -8.5215704207081e-06
  92    -3.2185599823791e-05
  93    9.4851805624485e-05
  94    -7.474040727787e-05
 Sym= A
 Ene=               3
 Spin= Alpha
 Occup=    1.00000
   1    7.1107855629191e-05
   2    8.6849267126257e-05
   3    -0.0016818286513954
   4    -0.00011520778604794
   5    -3.4344025175072e-06
   6    -1.8896135590892e-06
   7    -0.00084777230295412
   8    0.00039062159116134
   9    0.0002252167219682
  10    -9.036986796565e-06
  11    1.2994354577576e-05
  12    4.5862868989424e-05
  13    -6.6231943825916e-05
  14    2.2385612100942e-05
  15    -0.00019877446919463
  16    0.00027629418031321
  17    0.0038698945373021
  18    0.00039745323409225
  19    -0.00083028891598462
  20    -0.00051779227500259
  21    -0.00029439810747531
  22    -0.0012083788251537
  23    -0.0011329164025219
  24    -3.7961205156531e-05
  25    -6.5224134378541e-05
  26    8.5683242237388e-05
  27    -5.861339305066e-05
  28    -5.9762188762028e-05
  29    -0.00023852110070963
  30    -7.2537935100708e-05
  31    -7.9864477479245e-06
  32    0.0001313885340577
  33    9.8340870771402e-05
  34       1.0010288063319
  35    0.00075746720346194
  36    -0.0058510342802988
  37    -0.00070847960387863
  38    0.0019645842684898
  39    0.0012058610886831
  40    0.00027302799220538
  41    -0.00054873423510063
  42    -0.00022700474823468
  43    1.2055630634048e-05
  44    4.1371067879209e-05
  45    -8.2505577024194e-05
  46    7.3336769571065e-05
  47    6.2505588088624e-05
  48    0.00010135934969721
  49    0.00016944289823558
  50    -0.00073193369828353
  51    2.7145141155157e-06
  52    3.6351738703128e-05
  53    -4.3295633921171e-05
  54    4.5139106750243e-05
  55    0.00043330050284203
  56    0.00013802342176489
  57    1.8169688686611e-05
  58    -1.1795614695125e-05
  59    3.3784372302131e-06
  60    1.8370084932599e-05
  61    -1.2166166759145e-05
  62    -2.1140190816523e-05
  63    -3.4706215723013e-05
  64    0.00012595096729175
  65    -1.5822998361939e-05
  66    -2.9349756563643e-06
  67    -1.3023685111476e-05
  68    0.00017824448763676
  69    -5.2452559062251e-05
  70    -2.5647083571729e-05
  71    -4.2648511792803e-06
  72    -3.4694227911608e-06
  73    1.1687473087702e-05
  74    -4.3909092054552e-06
  75    -2.3149103860324e-06
  76    0.00013442430577242
  77    -0.00011840317866345
  78    7.1481929771736e-06
  79    -3.8635495179197e-05
  80    -1.6090262073551e-05
  81    -4.4229068949697e-05
  82    -8.9654076311227e-05
  83    0.00028461873297546
  84    -2.4589638493488e-05
  85    -2.980620745019e-05
  86    1.4149225882146e-05
  87    4.4137185475584e-05
  88    8.148907052045e-05
  89    -3.3794379097765e-05
  90    1.4891338663566e-05
  91    2.8693043792255e-06
  92    -1.7557510876839e-06
  93    -9.2533361230968e-06
  94    -1.5775155406024e-06
 Sym= A
 Ene=               4
 Spin= Alpha
 Occup=    1.00000
   1    7.7176260786422e-05
   2    0.00010765141667955
   3    -0.0015232389456924
   4    -0.00014429386873056
   5    3.1309022076194e-05
   6    -2.558198461143e-05
   7    -0.00063745158572552
   8    -0.00021672162223703
   9    0.00034803948513706
  10    1.2653696508273e-05
  11    4.2580918936487e-05
  12    -7.273879354093e-05
  13    -6.5516694294442e-05
  14    -2.2349258208579e-05
  15    -0.00018065438192968
  16    0.00028458205289896
  17    0.0035415934983289
  18    0.00038965870537107
  19    0.00079421165475925
  20    -0.00049798228656903
  21    -0.00019329800794223
  22    0.0011573988511949
  23    -0.0010837761941628
  24    -2.4241245614853e-05
  25    -4.1219480698624e-05
  26    -9.2978676779483e-05
  27    -6.0798728943428e-05
  28    6.997073518276e-05
  29    -0.00024023562876122
  30    -6.9140577243545e-05
  31    -5.4145179314237e-06
  32    -0.00012974684332322
  33    0.00010221042677316
  34    9.6276539845633e-05
  35    0.00016112512723762
  36    -0.00068300638915176
  37    -3.2688290623584e-07
  38    -3.5837059972094e-05
  39    -3.908717311838e-05
  40    4.4145185724134e-05
  41    -0.00039952708000464
  42    0.00013561997085263
  43    1.7979703048745e-05
  44    -1.172329017999e-05
  45    -1.9306227101939e-06
  46    1.5109339237825e-05
  47    1.1624686342565e-05
  48       1.0010202267529
  49    0.0008940411245527
  50    -0.0056024510398293
  51    -0.00074225529819986
  52    -0.0018580874887457
  53    0.0011116147605862
  54    0.00026208833143163
  55    0.00056496073492992
  56    -0.00028558860144896
  57    1.1012504546867e-05
  58    4.2206828812076e-05
  59    8.5284626759941e-05
  60    7.2714090047915e-05
  61    -5.7993504406879e-05
  62    1.2459227401156e-05
  63    3.0868222299654e-05
  64    1.9840333138697e-05
  65    1.8061302746271e-05
  66    -9.9775912194996e-07
  67    -1.426810781065e-05
  68    2.2777211603371e-05
  69    -1.4111274372222e-05
  70    -3.2598301355684e-05
  71    1.4675985317186e-05
  72    1.5054985257318e-06
  73    -1.1266629159297e-06
  74    -4.8416051571405e-06
  75    -5.5249562018582e-06
  76    7.8241939766302e-05
  77    9.1606593974519e-05
  78    -4.4595281436065e-05
  79    -6.8688466007706e-06
  80    -1.8709024643964e-05
  81    -2.2663845590519e-05
  82    -3.9209924703776e-05
  83    0.00015876066702384
  84    -4.4071012257391e-06
  85    6.8180700280869e-06
  86    6.8422675408689e-06
  87    0.00010649028784242
  88    6.130046344324e-05
  89    -3.9445111266101e-05
  90    -2.2262828505052e-06
  91    6.1008182070027e-07
  92    -1.3811785105432e-05
  93    -7.1935445570001e-06
  94    -6.7121028378664e-07
 Sym= A
 Ene=               5
 Spin= Alpha
 Occup=    1.00000
   1    -0.0001807287421348
   2    0.00028399151070548
   3    0.0035414091979708
   4    -0.00038939600715438
   5    0.00028805250570322
   6    0.00089123531219301
   7    0.00019325260560484
   8    0.00018991304063603
   9    0.0015742201000685
  10    9.1787748089558e-05
  11    -7.6533487153176e-05
  12    6.6734078031964e-05
  13    6.2114652574037e-06
  14    -2.7097230145187e-05
  15    7.7177579758781e-05
  16    0.00010765800018996
  17    -0.0015232231840482
  18    0.00014426867441222
  19    7.5260517564315e-06
  20    3.9655687559527e-05
  21    0.00063732486113692
  22    5.7725534534264e-05
  23    -0.00040606506704452
  24    9.029532109644e-05
  25    4.7018654883428e-05
  26    3.4096935113899e-05
  27    -2.0697201018687e-05
  28    -1.024232151546e-05
  29    7.8234345768106e-05
  30    9.1776149303646e-05
  31    4.4591439600464e-05
  32    -1.7288845156876e-05
  33    9.9159089112377e-06
  34    -2.266539488644e-05
  35    -3.921807611336e-05
  36    0.00015874423491579
  37    4.4250528727442e-06
  38    9.6117961636819e-06
  39    -8.5822848748095e-07
  40    -0.00010646347053526
  41    2.1593635709472e-05
  42    6.9639889793808e-05
  43    1.3506298521502e-05
  44    8.9829228276299e-07
  45    7.8400459710128e-06
  46    1.8906265485178e-06
  47    1.2045624653651e-07
  48    1.2462369078236e-05
  49    3.0869549687908e-05
  50    1.9795210875476e-05
  51    -1.8050450315552e-05
  52    -9.9318229680376e-06
  53    1.0296336304161e-05
  54    -2.2751195070948e-05
  55    -3.175429099237e-05
  56    1.5916165074753e-05
  57    8.2727805083513e-06
  58    4.7048503822238e-06
  59    -9.9372708850408e-06
  60    -8.537698828897e-06
  61    3.265842748947e-06
  62       1.0010202260188
  63    0.00089733081338909
  64    -0.0055985718496428
  65    0.00074131688746697
  66    -0.00070811261166898
  67    -0.0020436860865568
  68    -0.00026270812833492
  69    0.0002497081148774
  70    0.00058340306809672
  71    -9.4616106069824e-05
  72    6.964861707904e-05
  73    -6.0037266915896e-05
  74    1.1755056732256e-05
  75    1.7307971897387e-05
  76    -0.00024024318324631
  77    -6.9009900457452e-05
  78    5.4293876137323e-06
  79    -3.3700815482504e-05
  80    -0.00016172594365086
  81    9.6280712585328e-05
  82    0.00016114195559737
  83    -0.00068301769420749
  84    3.358965493028e-07
  85    -5.2546694806868e-05
  86    6.9205152798577e-06
  87    -4.4143927360008e-05
  88    -0.00021885531083537
  89    -0.00036068603543017
  90    3.0770918726129e-06
  91    -1.6456244788143e-05
  92    -2.2449968884975e-05
  93    6.5105173404633e-06
  94    -1.3675212567769e-06
 Sym= A
 Ene=               6
 Spin= Alpha
 Occup=    1.00000
   1    0.00090595236384631
   2     0.014144920020971
   3     0.014049401230936
   4    -0.016573655067508
   5     0.012892222110174
   6     0.034938716883177
   7    -0.019448005453362
   8    0.0089411981657393
   9     0.047751518814614
  10    -0.013167828992966
  11    -0.004205084575416
  12    -0.035056664944027
  13    0.0072373847048836
  14     0.018201361376713
  15    0.0016081524682067
  16     0.013304350938599
  17     0.015282319038652
  18     -0.02411844291575
  19    -0.0013078301320973
  20    -0.0052721912072928
  21    -0.017164398401943
  22    0.0016029014968191
  23    -0.010821015188875
  24    0.00039074887430715
  25    -0.00021685083153546
  26    0.00050494357570446
  27    -0.000205773960519
  28    0.00092994843332244
  29    -0.0076317885235609
  30    -0.0016561032151823
  31    0.00030925883784985
  32    -0.00057853009169312
  33    0.00052927035838332
  34    0.0012662407218441
  35    0.0066899849232772
  36    0.0025398296501541
  37    -0.011993446745451
  38    0.00092812884494706
  39    0.00038795810923494
  40    -0.0042835043743624
  41    0.0017119683025715
  42    0.0038798616775481
  43    0.00055575726314712
  44    -0.00035769542904105
  45    0.00018762379342242
  46    -0.0011456353997872
  47    -0.00078562439765259
  48    -0.00049430729341457
  49    -0.0025415847681646
  50    -0.002136252976464
  51    0.0057766054287126
  52    0.0010630433882898
  53    -0.0011646534933776
  54    0.0038916455961151
  55    0.00084005174252897
  56    -0.00058932296815002
  57    -0.00027394015686687
  58    -0.00023285261542554
  59     0.000146879987455
  60    0.0003964464343174
  61    0.00040766677729512
  62    0.0016192531749472
  63    -0.014147923011278
  64    -0.050795779013852
  65    -0.0060670828919491
  66     0.026836653225996
  67     0.037181833897936
  68    -0.0052553106551767
  69     0.026311331276647
  70     0.034173932901594
  71    -0.00024599562006855
  72    -0.00015840651202799
  73    -0.00033899563949795
  74    -0.00043712889572802
  75    0.00074650902263227
  76     0.023813532747271
  77     0.017361056329011
  78    -0.00065416584020715
  79    -0.0007339459142199
  80    -0.00077296833974648
  81    0.00027134666990234
  82    0.0022245199284072
  83    -0.00088488924384628
  84     -0.31867167892925
  85     0.017437875043553
  86      0.58249509059072
  87      -0.2203608115803
  88    0.0094777451688778
  89      0.40084834793829
  90    0.0032103954171434
  91    0.0036554039035578
  92      0.01232020091663
  93    -0.0026909827953914
  94    -0.0068463683456454
 Sym= A
 Ene=               7
 Spin= Alpha
 Occup=    1.00000
   1    0.00096690667130755
   2     0.033470039696986
   3     0.090817515649324
   4     0.042206548212033
   5    0.0064263132796014
   6    -0.0099461636432435
   7     0.017702065666084
   8    -0.0086768751104539
   9    -0.0063535387099803
  10    0.00015417274777746
  11    -0.0013586753024388
  12    0.00087482563017595
  13    0.0014282640413452
  14    0.0007351124360212
  15     0.002961494061262
  16    0.0038314933318852
  17    -0.011988856872181
  18    0.00090164819754248
  19    0.0015861031599749
  20    -0.00088594210673157
  21     0.031390611149494
  22     0.016820424766921
  23     0.010021660107565
  24    -0.023134945945873
  25    -0.010436754034552
  26     0.016994415097847
  27     0.012029846554163
  28     0.026256025356849
  29    -0.050692553665205
  30    -0.046923977472259
  31    -0.0018208145803025
  32    -0.0028867157095798
  33    0.00074854976585716
  34    -0.00070870946482988
  35    -0.00030092172958295
  36    0.0087489503556431
  37    -0.0037911246129628
  38    0.0011695295204322
  39    -0.0015651474535281
  40    -0.0056127757619308
  41    0.0012500498675509
  42    0.00044743466425842
  43    -0.00057420797981394
  44    -0.00024059448092268
  45    0.00031704099325844
  46    0.00027564720331073
  47    0.00030828110745015
  48    0.0014607659936529
  49    -0.0073542889600131
  50    -0.019857426986448
  51      0.54983339588228
  52     0.013355241914997
  53      0.38112481479745
  54      0.38232150585766
  55     0.010977104069266
  56      0.26291384423499
  57    0.0068977174486897
  58    0.0027086106450485
  59    -0.0061712681278133
  60    -0.0038398021446381
  61    -0.0094140631983796
  62    0.00045335412383045
  63    -0.0014491312865237
  64    -0.0095931835324891
  65    -0.0036630271547807
  66    0.0012681537325856
  67     0.006350320713243
  68    -0.0046135427419726
  69    0.0047810572119883
  70    0.0079960798512306
  71    -0.00016354695205447
  72    -0.0005148867789631
  73    -0.00032891026313689
  74    0.00025878058437115
  75    -0.00012004823528707
  76     0.011212734299413
  77    -0.030105061000799
  78    -0.0037778127667246
  79    -0.0014433247296833
  80    0.0017300726825304
  81    0.00066518057573613
  82    -0.0030851577812929
  83    -0.018490212548519
  84    -0.0081985053636967
  85    -0.0091955516219893
  86    5.406309682802e-05
  87    -0.0056663084652968
  88    -0.011812782225722
  89    -0.0016176377540976
  90    -0.00017266548309822
  91    1.8004537483969e-05
  92    -0.00028701391953761
  93    0.00063800620827484
  94    0.00064628673005412
 Sym= A
 Ene=               8
 Spin= Alpha
 Occup=    1.00000
   1    -0.0029614053991706
   2    -0.0038308376093306
   3     0.011989055810931
   4    0.0009013913327149
   5    -0.00064518578398639
   6    -0.0016973382064206
   7     0.031390689981724
   8    -0.019326834391946
   9    -0.0031349642722969
  10     0.027595305700271
  11     0.024872076725612
  12     -0.01085640709165
  13    -0.0094546930252636
  14      0.01340465571284
  15    -0.00096690626088299
  16    -0.033470058036606
  17    -0.090817544530974
  18     0.042206591247101
  19     0.001470443925642
  20     -0.01174988455825
  21      0.01770221730369
  22     0.010730828300078
  23    0.00071047322964208
  24    0.0011985505860873
  25    0.0015132869045472
  26    0.00098669115267233
  27    -0.00064726229277617
  28    -0.0003102244494598
  29    -0.011212732256558
  30     0.030104861793397
  31    -0.0037778089627458
  32    -6.4162299106082e-06
  33    0.0022530667832594