[Molden Format]
made by pyscf v[2.0.1]
[Atoms] (AU)
C   1   6     0.00000000000000     0.00000000000000     0.00000000000000
C   2   6     2.85272299873892     0.00000000000000     0.00000000000000
H   3   1     3.62066923017674     0.00000000000000     1.90331545357504
F   4   9     3.65943188126013    -2.04308229183900    -1.24074875274501
F   5   9     3.65943188126013     2.04308229183900    -1.24074875274501
F   6   9    -0.80670888252121     2.34423041954446     0.46714714892290
H   7   1    -0.76794623143782    -0.65097222422569    -1.78853148675225
F   8   9    -0.80670888252121    -1.49550828705448     1.86469774548472
[GTO]
1 0
 s    8 1.00
                  6665  0.00069158396281299
                  1000  0.0053257961529341
                   228   0.027060721042034
                 64.71    0.10165684614077
                 21.06     0.2745748236174
                 7.495    0.44829431892377
                 2.797    0.28490261071525
                0.5215   0.015194859206082
 s    8 1.00
                  6665  -0.00029326965268655
                  1000  -0.0023180354739745
                   228  -0.011499786038565
                 64.71  -0.046826727009787
                 21.06   -0.12846616875047
                 7.495   -0.30126627246289
                 2.797   -0.25563070233011
                0.5215      1.093793361012
 s    1 1.00
                0.1596                   1
 p    3 1.00
                 9.439   0.056979251590039
                 2.002    0.31320721150073
                0.5456    0.76037674173753
 p    1 1.00
                0.1517                   1
 d    1 1.00
                  0.55                   1

2 0
 s    8 1.00
                  6665  0.00069158396281299
                  1000  0.0053257961529341
                   228   0.027060721042034
                 64.71    0.10165684614077
                 21.06     0.2745748236174
                 7.495    0.44829431892377
                 2.797    0.28490261071525
                0.5215   0.015194859206082
 s    8 1.00
                  6665  -0.00029326965268655
                  1000  -0.0023180354739745
                   228  -0.011499786038565
                 64.71  -0.046826727009787
                 21.06   -0.12846616875047
                 7.495   -0.30126627246289
                 2.797   -0.25563070233011
                0.5215      1.093793361012
 s    1 1.00
                0.1596                   1
 p    3 1.00
                 9.439   0.056979251590039
                 2.002    0.31320721150073
                0.5456    0.76037674173753
 p    1 1.00
                0.1517                   1
 d    1 1.00
                  0.55                   1

3 0
 s    3 1.00
                 13.01   0.033498726389998
                 1.962    0.23480080117413
                0.4446     0.8136829578829
 s    1 1.00
                 0.122                   1
 p    1 1.00
                 0.727                   1

4 0
 s    8 1.00
                 14710  0.00072067370873197
                  2207  0.0055504869689163
                 502.8   0.028254207662589
                 142.6    0.10639582836653
                 46.47    0.28668420124307
                  16.7    0.44843796582416
                 6.356    0.26464118141135
                 1.316   0.015326060993048
 s    8 1.00
                 14710  -0.00032119389049893
                  2207  -0.0025461915683188
                 502.8  -0.012643359507821
                 142.6   -0.05195749170489
                 46.47   -0.14344713812646
                  16.7   -0.33243762329603
                 6.356   -0.21865906750347
                 1.316     1.0955904138622
 s    1 1.00
                0.3897                   1
 p    3 1.00
                 22.67   0.064834021493887
                 4.977    0.34053535983101
                 1.347    0.73464640679382
 p    1 1.00
                0.3471                   1
 d    1 1.00
                  1.64                   1

5 0
 s    8 1.00
                 14710  0.00072067370873197
                  2207  0.0055504869689163
                 502.8   0.028254207662589
                 142.6    0.10639582836653
                 46.47    0.28668420124307
                  16.7    0.44843796582416
                 6.356    0.26464118141135
                 1.316   0.015326060993048
 s    8 1.00
                 14710  -0.00032119389049893
                  2207  -0.0025461915683188
                 502.8  -0.012643359507821
                 142.6   -0.05195749170489
                 46.47   -0.14344713812646
                  16.7   -0.33243762329603
                 6.356   -0.21865906750347
                 1.316     1.0955904138622
 s    1 1.00
                0.3897                   1
 p    3 1.00
                 22.67   0.064834021493887
                 4.977    0.34053535983101
                 1.347    0.73464640679382
 p    1 1.00
                0.3471                   1
 d    1 1.00
                  1.64                   1

6 0
 s    8 1.00
                 14710  0.00072067370873197
                  2207  0.0055504869689163
                 502.8   0.028254207662589
                 142.6    0.10639582836653
                 46.47    0.28668420124307
                  16.7    0.44843796582416
                 6.356    0.26464118141135
                 1.316   0.015326060993048
 s    8 1.00
                 14710  -0.00032119389049893
                  2207  -0.0025461915683188
                 502.8  -0.012643359507821
                 142.6   -0.05195749170489
                 46.47   -0.14344713812646
                  16.7   -0.33243762329603
                 6.356   -0.21865906750347
                 1.316     1.0955904138622
 s    1 1.00
                0.3897                   1
 p    3 1.00
                 22.67   0.064834021493887
                 4.977    0.34053535983101
                 1.347    0.73464640679382
 p    1 1.00
                0.3471                   1
 d    1 1.00
                  1.64                   1

7 0
 s    3 1.00
                 13.01   0.033498726389998
                 1.962    0.23480080117413
                0.4446     0.8136829578829
 s    1 1.00
                 0.122                   1
 p    1 1.00
                 0.727                   1

8 0
 s    8 1.00
                 14710  0.00072067370873197
                  2207  0.0055504869689163
                 502.8   0.028254207662589
                 142.6    0.10639582836653
                 46.47    0.28668420124307
                  16.7    0.44843796582416
                 6.356    0.26464118141135
                 1.316   0.015326060993048
 s    8 1.00
                 14710  -0.00032119389049893
                  2207  -0.0025461915683188
                 502.8  -0.012643359507821
                 142.6   -0.05195749170489
                 46.47   -0.14344713812646
                  16.7   -0.33243762329603
                 6.356   -0.21865906750347
                 1.316     1.0955904138622
 s    1 1.00
                0.3897                   1
 p    3 1.00
                 22.67   0.064834021493887
                 4.977    0.34053535983101
                 1.347    0.73464640679382
 p    1 1.00
                0.3471                   1
 d    1 1.00
                  1.64                   1

[5d]
[7f]
[9g]

[MO]
 Sym= A
 Ene=               0
 Spin= Alpha
 Occup=    1.00000
   1       1.0019108088736
   2    0.0042225144955279
   3    -0.0074071465257657
   4    -0.00058441515688492
   5    0.00035254079332177
   6    0.0010664661395388
   7    -0.0015836651549032
   8    0.00020470061968046
   9    0.00070719771948738
  10    -2.9836627545449e-05
  11    -0.00010849377009442
  12    -0.00016049781585279
  13    -0.00030355141904001
  14    -3.5851072803539e-05
  15    -0.00021366021632075
  16    6.9779375847876e-05
  17    0.0031895250834257
  18    -0.00047466731405253
  19    -8.0733617134832e-06
  20    7.9342363921502e-06
  21     -0.00154932806858
  22    -5.3869464600679e-05
  23    -0.00043653640885377
  24    -4.3314501065046e-05
  25    9.0454711531039e-05
  26    1.2750021902099e-05
  27    7.7974893947236e-05
  28    4.1006635770032e-05
  29    -4.878335186783e-05
  30    0.00043150500401472
  31    -9.775913087159e-05
  32    -3.6552324579239e-06
  33    -2.2731518835971e-05
  34    3.4670292870294e-06
  35    1.3145307298529e-05
  36    -0.00021616120579382
  37    8.294425970154e-07
  38    6.3786682092079e-06
  39    -1.1583061629779e-05
  40    -4.791243383505e-05
  41    -8.1751715415281e-05
  42    4.8481085047647e-05
  43    -1.6454967744078e-05
  44    -1.1717985261577e-05
  45    1.4956311412488e-05
  46    2.0514154733744e-05
  47    -8.1709773433292e-06
  48    -1.0197864184438e-05
  49    -8.3287962706068e-06
  50    -0.00013609512276713
  51    -8.3712395432521e-06
  52    -1.3583061459337e-05
  53    -4.9173572317187e-06
  54    -9.6690237701206e-05
  55    9.1283739030955e-05
  56    2.1946819291916e-05
  57    -1.9724053435935e-05
  58    -1.1520971670051e-05
  59    -1.0991310169793e-05
  60    2.6074678460111e-05
  61    1.2789025829255e-05
  62    0.0001475005123076
  63    0.00066033654155251
  64    -0.0001013137788789
  65    7.5438267944659e-05
  66    -0.00033779561243126
  67    -2.9245563452536e-05
  68    -0.00013370919215338
  69    0.00085563118385858
  70    0.00011156591184742
  71    8.7770312875359e-05
  72    4.0168208179541e-06
  73    -3.5712489796013e-05
  74    0.00011175435222331
  75    7.5071341629942e-05
  76    0.00096960537891506
  77    0.0015418779821911
  78    0.00022190136644112
  79    3.072929557492e-05
  80    6.1590416049705e-05
  81    0.00016017370568839
  82    0.00068525283009374
  83    -0.00017980911310269
  84    7.2710640075355e-05
  85    0.00023806869806086
  86    -0.0002376403520025
  87    -0.0001413958933373
  88    -0.00059801933307145
  89    0.00065657009239691
  90    -3.9887854296249e-05
  91    5.3494023297103e-05
  92    0.00014131318274054
  93    4.1081696611018e-05
  94    -5.788591197165e-05
 Sym= A
 Ene=               1
 Spin= Alpha
 Occup=    1.00000
   1    -0.00021365677862771
   2    6.9819122955648e-05
   3    0.0031895419069981
   4    0.0004747400483781
   5    -1.0300011912919e-05
   6    -4.6934910905115e-06
   7    0.0015493437508198
   8    9.8683195050252e-05
   9    0.00042863954833835
  10    -3.6519245153005e-05
  11    9.9028047007146e-05
  12    -8.8179151455623e-06
  13    8.190592743118e-05
  14    -7.5976606020418e-06
  15       1.0019108086117
  16    0.0042225195961769
  17    -0.0074071052770916
  18    0.00058431771586287
  19    -3.3506136977035e-05
  20    -0.0011226743518651
  21    0.0015836344976278
  22    -4.9525212462675e-05
  23    -0.00073455564989536
  24    -8.3196435433753e-05
  25    -0.00011420439099488
  26    8.7855972460353e-06
  27    -0.00033434822252229
  28    -3.4203561689784e-06
  29    0.00096961662997623
  30    0.0015418771242912
  31    -0.0002219039007691
  32    7.8101493064895e-06
  33    -6.838524464575e-05
  34    0.00016017480424948
  35    0.00068524042592908
  36    -0.00017982778256947
  37    -7.2748041464234e-05
  38    0.00030493562446429
  39    0.00014188798919486
  40    0.00014137505043527
  41    -0.00078655016181636
  42    -0.00041243794539097
  43    4.1615089933501e-05
  44    3.0468775335149e-05
  45    -0.00011725407874352
  46    8.8139520901444e-05
  47    7.2690332414741e-05
  48    0.00014750223671162
  49    0.00066029005756085
  50    -0.00010136061912148
  51    -7.5429047376263e-05
  52    -0.0003073344874004
  53    0.0001429803144471
  54    0.00013371930644436
  55    0.00076592730755257
  56    -0.00039750251910404
  57    4.1168964365241e-05
  58    2.9450857544133e-05
  59    0.0001121364440942
  60    8.4851534281405e-05
  61    -6.9171073320027e-05
  62    -1.0197659393628e-05
  63    -8.3318385537945e-06
  64    -0.00013610189826508
  65    8.3543260760012e-06
  66    -1.107901283633e-05
  67    9.2637437427969e-06
  68    9.6673899718414e-05
  69    7.8274822600178e-05
  70    -5.1846998455942e-05
  71    -2.5023275941379e-05
  72    -6.4521710394947e-06
  73    5.8202183662182e-06
  74    2.3015564092365e-05
  75    -1.5958681378724e-05
  76    -4.8788795620719e-05
  77    0.00043149758576006
  78    9.7761077947347e-05
  79    4.339711564477e-06
  80    2.2610520150984e-05
  81    3.4668581918165e-06
  82    1.3143790877785e-05
  83    -0.00021616712972802
  84    -8.4107887981339e-07
  85    9.9488652100506e-06
  86    8.7125079981583e-06
  87    4.7899806313595e-05
  88    -9.3407671485694e-05
  89    -1.7590528506311e-05
  90    -7.3205320482498e-06
  91    -1.3806429687047e-05
  92    -1.4023865870563e-05
  93    2.5788574209038e-05
  94    3.6707894653829e-06
 Sym= A
 Ene=               2
 Spin= Alpha
 Occup=    1.00000
   1    5.1199070337279e-05
   2     5.62440420272e-05
   3    -0.0014113315224037
   4    -0.00012782941874412
   5    1.1980142222681e-05
   6    -8.0199108003328e-06
   7    -0.00076403097613628
   8    -0.00026671827226802
   9    0.00020347792748292
  10    1.1816884553936e-06
  11    9.3156585368012e-06
  12    -3.453520476415e-05
  13    -8.2060375692897e-05
  14    -1.1978112406911e-05
  15    -0.00018523534379889
  16    0.00029671348895643
  17     0.003664533580306
  18    0.00039742672473704
  19    0.00082416275223039
  20    -0.00051404810600325
  21    -0.00022631362983962
  22    0.0012174671103228
  23    -0.0011223232232055
  24    -3.8334627266624e-05
  25    -6.9145944965317e-05
  26    -9.453029192818e-05
  27    -5.7987815132453e-05
  28    7.309815651437e-05
  29    -0.00022193148720154
  30    -6.1644732246025e-05
  31    -1.1987242910066e-05
  32    -0.00013601656071059
  33    9.4016834373774e-05
  34    9.2831692385222e-05
  35    0.00015343731920781
  36    -0.00067705937599451
  37    4.2700676993711e-06
  38    -3.5650516751944e-05
  39    -4.3811169446531e-05
  40    3.1045860094559e-05
  41    -0.00041903197767452
  42    0.00014811951925833
  43    1.860442894767e-05
  44    -1.2509832074201e-05
  45    -2.189081598778e-06
  46    1.7164512161135e-05
  47    1.1239397335383e-05
  48       1.0010290581979
  49    0.00077520845042942
  50    -0.0058265173097497
  51    -0.00072752711511502
  52    -0.001953860965652
  53    0.0011877779503206
  54    0.00027129514341213
  55    0.00054646281482926
  56    -0.00023974681233666
  57    1.331241771641e-05
  58    4.1227590482872e-05
  59    8.4627131596452e-05
  60    7.1564495152668e-05
  61    -6.1363556230621e-05
  62    -3.3351160696788e-06
  63    -8.6630312111521e-06
  64    8.8058935895531e-05
  65    -3.3180119930133e-06
  66    1.3547756246954e-05
  67    2.6280824772828e-05
  68    -2.8002260332026e-05
  69    -3.2060126701632e-05
  70    -5.5888664646001e-05
  71    1.3218211239769e-05
  72    7.2665724766745e-06
  73    -4.6290144901337e-06
  74    -1.4259106734652e-05
  75    3.2378534186993e-06
  76    0.00011789138049942
  77    -0.00012659481716905
  78    -3.0179733734464e-05
  79    9.6430386341323e-06
  80    -1.1215026744932e-06
  81    -2.3829704669865e-05
  82    -4.1586895321786e-05
  83    0.00010751263170633
  84    -2.4205621582338e-05
  85    8.3192617254207e-06
  86    -5.841515127027e-06
  87    0.00019286760530656
  88    2.4855992627414e-05
  89    -1.3018350561547e-05
  90    -6.8449321933511e-06
  91    1.4396876004196e-06
  92    -7.7732824075034e-07
  93    -2.0419221463251e-06
  94    1.3411554704285e-06
 Sym= A
 Ene=               3
 Spin= Alpha
 Occup=    1.00000
   1    -0.00018530413815525
   2    0.00029617702508207
   3    0.0036644225670624
   4    -0.00039715503083871
   5    0.0009495125507395
   6    0.00020100357393631
   7    0.00022631966898213
   8    0.0015279218832127
   9    0.00063826624994063
  10    -7.8321510482793e-05
  11    -3.9969275662705e-05
  12    3.2360248060353e-05
  13    -8.1060018540563e-05
  14    -9.2292287530371e-05
  15    5.1192514123325e-05
  16    5.6245060441322e-05
  17    -0.0014112507071817
  18    0.00012780477195553
  19    1.3982739298449e-05
  20    3.447405116358e-06
  21    0.00076399383243585
  22    -0.00032024564261647
  23    -0.00010003195409747
  24    -9.9344321446603e-06
  25    4.6655804594116e-06
  26    7.3118144879457e-07
  27    -8.8484619653984e-05
  28    1.4477383437684e-05
  29    0.00011790675712225
  30    -0.00012657196305415
  31    3.0177752281472e-05
  32    9.4427840328958e-06
  33    -2.2453446494641e-06
  34    -2.3829667941695e-05
  35    -4.1613447693208e-05
  36    0.00010746396681099
  37    2.4293118190956e-05
  38    9.7895413313813e-06
  39    2.6199031817294e-06
  40    -0.00019280736148351
  41    2.779115659191e-05
  42    3.7217365880174e-06
  43    -5.8698146866621e-06
  44    1.8120048389893e-06
  45    -3.8710917653374e-06
  46    -1.4783118655963e-06
  47    -7.672072992865e-07
  48    -3.3349490033267e-06
  49    -8.6651006154063e-06
  50    8.8036702386998e-05
  51    3.3061028588996e-06
  52    3.729218360425e-06
  53    -2.9322769000644e-05
  54    2.7989763947526e-05
  55    -1.0994529498618e-05
  56    6.3492804091908e-05
  57    9.766096411154e-06
  58    7.9351598347037e-06
  59    6.3225206840803e-06
  60    -1.6250376093153e-05
  61    -5.5761548269096e-07
  62       1.0010290632109
  63    0.00077794749276131
  64    -0.0058232745779106
  65    0.00072697586689225
  66    -0.0022399037580863
  67    -0.00044811308900398
  68    -0.0002716552678491
  69    0.00059708815839986
  70    3.8216157840177e-05
  71    5.0871082078659e-05
  72    1.7754868753733e-05
  73    -3.4425076545516e-05
  74    9.3278719435169e-05
  75    7.179640942659e-05
  76    -0.0002219426184383
  77    -6.1537538008628e-05
  78    1.2002622084597e-05
  79    -0.00015999807015972
  80    -4.1829749504054e-05
  81    9.2833150427006e-05
  82    0.00015351079609802
  83    -0.00067698756740493
  84    -4.3251698909473e-06
  85    -1.8210799219334e-05
  86    5.335352466345e-05
  87    -3.109155533911e-05
  88    -0.00044419674003142
  89    4.1268322139948e-06
  90    1.2385374198293e-05
  91    -7.9133450888153e-06
  92    1.7552786121144e-05
  93    1.3576821233875e-05
  94    -1.4839926364368e-05
 Sym= A
 Ene=               4
 Spin= Alpha
 Occup=    1.00000
   1    -0.00017321889400145
   2    0.0003045977537844
   3    0.0034570996759606
   4    -0.00039520290838026
   5    -0.00058289945439625
   6    0.00074965901968197
   7    0.00016598985204695
   8    -0.00074749303813805
   9    0.0014082873605533
  10    3.9081747955256e-05
  11    -7.1655134748668e-05
  12    -0.00010755250106293
  13    -2.0189530483899e-05
  14    5.9977059209569e-05
  15    5.4844853613978e-05
  16    6.9206943925109e-05
  17    -0.0013095054195942
  18      0.00014649502889
  19    -1.6365691477319e-05
  20    2.6983046375774e-05
  21    0.00062479254469932
  22    4.2270811607826e-05
  23    -0.0003387932839171
  24    6.0619926945929e-05
  25    3.7625823305493e-05
  26    -4.5376739750641e-05
  27    -5.516068067255e-05
  28    4.0690845465351e-06
  29    6.973652687785e-05
  30    -9.687106727021e-07
  31    6.180872500854e-05
  32    1.9178759857336e-05
  33    1.0435619083963e-05
  34    2.972890611341e-05
  35    6.2180429585413e-05
  36    -5.6139970728085e-05
  37    -2.6751087281781e-05
  38    6.7752273693714e-06
  39    1.1722087501308e-06
  40    5.1798242684088e-05
  41    1.7060006087714e-05
  42    5.9289183187416e-06
  43    7.4378971277517e-06
  44    9.7582087945501e-06
  45    4.1640750383001e-06
  46    -1.4523062959155e-05
  47    -1.2929664457852e-06
  48    -2.5488865682333e-05
  49    -4.5605943021668e-05
  50    0.0001340258919084
  51    1.6259798413389e-05
  52    -8.7738177060106e-06
  53    -2.0254268732615e-06
  54    -0.00014652408444744
  55    -9.6867003397069e-06
  56    5.1697543763108e-05
  57    8.5029374874781e-06
  58    2.6302768933166e-06
  59    -3.2582217564404e-06
  60    4.1230218685804e-06
  61    -2.6975406398739e-06
  62    8.8592231916602e-05
  63    0.00014621236774295
  64    -0.00063787647457681
  65    -1.6242339991286e-06
  66    4.7666802008139e-05
  67    2.4288752249109e-05
  68    -3.2499640913728e-05
  69    0.00032033133797262
  70    -0.00026644696741864
  71    1.4048376004953e-05
  72    -1.5210873419832e-05
  73    1.3971100214138e-05
  74    1.2301721344856e-05
  75    6.4186871492788e-06
  76    -0.00023720789965768
  77    -6.3003285477811e-05
  78    7.1718364613243e-06
  79    9.3393449272216e-05
  80    -0.00013798775788724
  81       1.0010224237648
  82    0.00084721147492127
  83    -0.0056724690999418
  84    0.00074657765094617
  85    0.0013928092846121
  86    -0.0017157322357043
  87    -0.0002691253290999
  88    -0.00041695866750973
  89    0.00045247990042208
  90    -4.555716201955e-05
  91    6.0306858854261e-05
  92    9.5406271601538e-05
  93    3.7485913865934e-05
  94    -4.0287436838525e-05
 Sym= A
 Ene=               5
 Spin= Alpha
 Occup=    1.00000
   1    5.4850161998033e-05
   2    6.9248766956718e-05
   3    -0.0013094876660836
   4    -0.00014643169809064
   5    -2.4585716705685e-05
   6    -1.9734187702403e-05
   7    -0.00062470367027825
   8     0.000155627585871
   9    0.00030401370987551
  10    3.0317225206978e-05
  11    3.6763056317695e-05
  12    5.0773950933444e-05
  13    -7.2657218744734e-05
  14    9.0636837570826e-06
  15    -0.00017326481192925
  16    0.0003042673301226
  17    0.0034570487641215
  18    0.00039505647077436
  19    -0.00080365798880984
  20    -0.00050485440704842
  21    -0.00016594775558329
  22    -0.0011839643001462
  23    -0.0010678139933426
  24    -2.5534013877042e-05
  25    -4.6842226409197e-05
  26    9.766600023396e-05
  27    -5.7454808503137e-05
  28    -8.0871329476849e-05
  29    -0.00023712366562253
  30    -6.2856298773091e-05
  31    -7.1798043210538e-06
  32    0.00013496702670673
  33    9.7734130332755e-05
  34       1.0010224249632
  35    0.0008492806632753
  36    -0.0056700362766031
  37    -0.00074546521690275
  38    0.0018953065826286
  39    0.0011339254661103
  40    0.00026988033861851
  41    -0.00054676860389473
  42    -0.00028392448386933
  43    1.1732581359525e-05
  44    4.2920726421992e-05
  45    -8.6438479464069e-05
  46    7.0570367151843e-05
  47    5.8507385447315e-05
  48    8.859950151717e-05
  49    0.00014617678478943
  50    -0.000638020708858
  51    1.6574139807346e-06
  52    3.6563308429956e-05
  53    -3.919126343929e-05
  54    3.2532448961887e-05
  55    0.00039221750587373
  56    0.00014076723646117
  57    1.8119836965765e-05
  58    -1.2101277618758e-05
  59    1.0745008385511e-06
  60    1.4655034071501e-05
  61    -1.1235872686564e-05
  62    -2.5488348209523e-05
  63    -4.5621284770061e-05
  64    0.00013398560960474
  65    -1.6305116541266e-05
  66    -7.525026677113e-06
  67    4.9058126219747e-06
  68    0.00014647645508693
  69    -2.6765997961099e-05
  70    -4.527720460406e-05
  71    4.7790499916373e-06
  72    1.5493083772613e-06
  73    8.5544841970922e-06
  74    1.9741945341024e-06
  75     3.43355857116e-06
  76    6.9749670369887e-05
  77    -8.5686384806171e-07
  78    -6.1804521838063e-05
  79    1.4455079511373e-05
  80    -1.6363634825674e-05
  81    2.9731144177163e-05
  82    6.2187979422592e-05
  83    -5.6163995453604e-05
  84    2.6761827813382e-05
  85    5.9490822161774e-06
  86    -3.4351267590846e-06
  87    -5.180414203976e-05
  88    1.3985818054988e-05
  89    -1.1421370280685e-05
  90    9.9220287228801e-06
  91    8.7272809126206e-06
  92    -3.7174083052396e-06
  93    -1.3088508409069e-05
  94    4.5543732142476e-06
 Sym= A
 Ene=               6
 Spin= Alpha
 Occup=    1.00000
   1    0.0011777488114126
   2     0.014752906789621
   3     0.010695924126293
   4    -0.016254006278871
   5    -0.023395394827043
   6     0.028479470577169
   7    -0.020373770102345
   8    -0.023522607529171
   9      0.03975878407036
  10    0.0079457636101479
  11    -0.0097252968388664
  12      0.03158417557426
  13      0.01946669233627
  14    -0.015953169331003
  15    0.0018938358211118
  16     0.014867406730498
  17     0.015457729543222
  18    -0.023739553004235
  19    0.0012180756448249
  20    -0.0047871239192419
  21    -0.019866544499803
  22    -0.00062800976230624
  23    -0.015306917143456
  24    0.00040482211658767
  25    -7.9437244233815e-05
  26    -0.0012535209691265
  27    0.00027514083125257
  28    -0.00039321518336918
  29    -0.0034788448536577
  30    0.0045703205297442
  31    -0.00019471794025192
  32    0.00075591273058548
  33    -6.2081512216511e-05
  34    -0.00011180254121559
  35    -0.0024817716095484
  36    -0.0051032336357839
  37    0.0068025253729781
  38    -0.0029436459270303
  39    -0.0016623318057369
  40    0.0064235452151344
  41    -0.0026591485694754
  42    -0.00075042626234567
  43    -0.00022384671747037
  44    -0.00015888835258284
  45    -0.00015094206742181
  46    0.00038920657678059
  47    -0.00038162962180485
  48    0.0015329956365665
  49     0.006802807419861
  50    -0.00031099042622557
  51    -0.011477344951649
  52    0.00084829664369529
  53    0.0041391802516105
  54    -0.0022955762139353
  55    -0.0011250064415799
  56    0.0045443053104482
  57    0.00042894115973325
  58    0.00015618418283119
  59    -0.00029679311662557
  60    -0.00090045959746807
  61    0.00084145424057958
  62    0.0003770313853653
  63     0.002523199797386
  64    -0.00095630573481393
  65     -0.32476969437807
  66     -0.21800444149597
  67       0.5368633027368
  68     -0.22517604577798
  69     -0.14798952915835
  70      0.37032002522145
  71    -0.0037989778044907
  72    0.0058125863930169
  73    -0.010216070765623
  74    -0.0070158516446501
  75    0.0051949012524477
  76     0.022419914487763
  77     0.015830889073996
  78    -0.00069562231063326
  79    0.00081399111023604
  80    -0.00062095978956523
  81    0.0014439418270746
  82    -0.014376423870193
  83    -0.048912714537063
  84    -0.0062206972547797
  85    -0.037912142944245
  86     0.025561488228909
  87    -0.0051831555370491
  88    -0.035869158050361
  89      0.02258458410823
  90    2.5301030539041e-05
  91    -0.00040686670872124
  92    0.00051525676212729
  93    -0.00026590204024667
  94    -0.00064753273625235
 Sym= A
 Ene=               7
 Spin= Alpha
 Occup=    1.00000
   1    0.0014389047667632
   2     0.033014399499115
   3     0.084949431587374
   4     0.042564459726778
   5    -0.001730489924602
   6    -0.010542558300878
   7     0.018837855122652
   8      0.01989523308047
   9    -0.010104141552931
  10    0.00038783369680319
  11    -0.0010767202895349
  12    -0.0013829363709924
  13    0.0017857426361369
  14    -0.00061022163184984
  15    0.0028039097564388
  16    0.0033892962205173
  17    -0.011341220086407
  18    0.0004884695769086
  19    -0.0020265560989466
  20    -0.00031454984967016
  21     0.030192786964505
  22    -0.019828124153298
  23     0.010163692005477
  24    -0.023663128912646
  25    -0.010235902800039
  26    -0.017376270786544
  27     0.011452358743179
  28    -0.025993624080974
  29    -0.051006695322547
  30    -0.046713437123882
  31    -0.0019299689430764
  32    0.0030285557674032
  33    0.00068867114275007
  34    0.0015776157188932
  35    -0.0049839548756187
  36    -0.018461299438996
  37      0.54222079287209
  38    -0.022576629004276
  39      0.39117693248791
  40      0.37723930564214
  41    -0.017387857235387
  42      0.26949326229729
  43    0.0070666026387783
  44    0.0025391972288162
  45    0.0063137096622991
  46    -0.0036568322426529
  47    0.0094417068151189
  48    -0.00076976934934563
  49    -0.00020478355401635
  50     0.009720758103938
  51    -0.0033585024651521
  52    -0.0019098330200533
  53    -0.0013895535896395
  54    -0.0049353570031675
  55    -0.0018605388267608
  56    0.00056668968886743
  57    -0.0005879913981823
  58    -0.00022147380208547
  59    -0.00031318671293767
  60    0.00032683455308849
  61    -0.00031378321876049
  62    0.0011440288549859
  63    -0.0023716450818073
  64    -0.021546448718102
  65    -0.0082997979753002
  66    0.0093988160994085
  67    0.0041113205891293
  68    -0.0065011903692368
  69     0.012169377186518
  70    0.0048744519666002
  71    -3.8626372819557e-05
  72    -0.0002382690119481
  73    3.2871067318168e-05
  74    0.00067857792441143
  75    -0.00061587958847073
  76    0.0096293311659071
  77    -0.030359977949911
  78    -0.0028566757272734
  79    0.00058072302158749
  80    0.0010873807773675
  81    -0.00021744522726393
  82    -0.0014821689075337
  83    -0.0013106643327355
  84    -0.0024902041869569
  85    -0.0025860236836976
  86    0.0023258865906332
  87    -0.0038187156871308
  88    -0.0053862629473771
  89    0.0021012266897433
  90    6.469437205112e-05
  91    -0.00041832726458878
  92    9.1881372146635e-05
  93    0.00032596532773691
  94    0.00034409370577567
 Sym= A
 Ene=               8
 Spin= Alpha
 Occup=    1.00000
   1    -0.0028038412883836
   2    -0.0033883673798962
   3     0.011342618801228
   4    0.00048717129340297
   5    0.0018001319223107
   6    -0.00098848683643936
   7     0.030191663946243
   8     0.022111942453233
   9    0.0027702700909912
  10     0.030345824184496
  11     0.018507630076475
  12    -0.003818216016275
  13    -0.0075929819923702
  14    -0.020924761443154
  15    -0.0014386542338646
  16    -0.033013097370376
  17    -0.084949019466597
  18     0.042562891812599
  19    -0.0019796442211121
  20    -0.010498535836804
  21     0.018837126985411
  22    -0.022150725114403
  23    -0.0026913140089002
  24    0.00063098809900301
  25    0.0012205228979349
  26    -0.0018490860410305
  27    -0.0011974388093156
  28    -0.00020522264138657
  29    -0.0096287353944871
  30      0.03036059720611
  31    -0.0028567263361958
  32    -0.00017378523505296
  33      0.00122034773882