[Molden Format]
made by pyscf v[2.0.1]
[Atoms] (AU)
C   1   6     0.00000000000000     0.00000000000000     0.00000000000000
C   2   6     2.85272299873892     0.00000000000000     0.00000000000000
H   3   1     3.62066923017674     0.00000000000000     1.90331545357504
F   4   9     3.65943188126013    -2.04308229183900    -1.24074875274501
F   5   9     3.65943188126013     2.04308229183900    -1.24074875274501
F   6   9    -0.80670888252121     1.14898679038220     2.09606108551054
H   7   1    -0.76794623143782     0.95165772678752    -1.64831953421149
F   8   9    -0.80670888252121    -2.38973554312721     0.05297879367154
[GTO]
1 0
 s    8 1.00
                  6665  0.00069158396281299
                  1000  0.0053257961529341
                   228   0.027060721042034
                 64.71    0.10165684614077
                 21.06     0.2745748236174
                 7.495    0.44829431892377
                 2.797    0.28490261071525
                0.5215   0.015194859206082
 s    8 1.00
                  6665  -0.00029326965268655
                  1000  -0.0023180354739745
                   228  -0.011499786038565
                 64.71  -0.046826727009787
                 21.06   -0.12846616875047
                 7.495   -0.30126627246289
                 2.797   -0.25563070233011
                0.5215      1.093793361012
 s    1 1.00
                0.1596                   1
 p    3 1.00
                 9.439   0.056979251590039
                 2.002    0.31320721150073
                0.5456    0.76037674173753
 p    1 1.00
                0.1517                   1
 d    1 1.00
                  0.55                   1

2 0
 s    8 1.00
                  6665  0.00069158396281299
                  1000  0.0053257961529341
                   228   0.027060721042034
                 64.71    0.10165684614077
                 21.06     0.2745748236174
                 7.495    0.44829431892377
                 2.797    0.28490261071525
                0.5215   0.015194859206082
 s    8 1.00
                  6665  -0.00029326965268655
                  1000  -0.0023180354739745
                   228  -0.011499786038565
                 64.71  -0.046826727009787
                 21.06   -0.12846616875047
                 7.495   -0.30126627246289
                 2.797   -0.25563070233011
                0.5215      1.093793361012
 s    1 1.00
                0.1596                   1
 p    3 1.00
                 9.439   0.056979251590039
                 2.002    0.31320721150073
                0.5456    0.76037674173753
 p    1 1.00
                0.1517                   1
 d    1 1.00
                  0.55                   1

3 0
 s    3 1.00
                 13.01   0.033498726389998
                 1.962    0.23480080117413
                0.4446     0.8136829578829
 s    1 1.00
                 0.122                   1
 p    1 1.00
                 0.727                   1

4 0
 s    8 1.00
                 14710  0.00072067370873197
                  2207  0.0055504869689163
                 502.8   0.028254207662589
                 142.6    0.10639582836653
                 46.47    0.28668420124307
                  16.7    0.44843796582416
                 6.356    0.26464118141135
                 1.316   0.015326060993048
 s    8 1.00
                 14710  -0.00032119389049893
                  2207  -0.0025461915683188
                 502.8  -0.012643359507821
                 142.6   -0.05195749170489
                 46.47   -0.14344713812646
                  16.7   -0.33243762329603
                 6.356   -0.21865906750347
                 1.316     1.0955904138622
 s    1 1.00
                0.3897                   1
 p    3 1.00
                 22.67   0.064834021493887
                 4.977    0.34053535983101
                 1.347    0.73464640679382
 p    1 1.00
                0.3471                   1
 d    1 1.00
                  1.64                   1

5 0
 s    8 1.00
                 14710  0.00072067370873197
                  2207  0.0055504869689163
                 502.8   0.028254207662589
                 142.6    0.10639582836653
                 46.47    0.28668420124307
                  16.7    0.44843796582416
                 6.356    0.26464118141135
                 1.316   0.015326060993048
 s    8 1.00
                 14710  -0.00032119389049893
                  2207  -0.0025461915683188
                 502.8  -0.012643359507821
                 142.6   -0.05195749170489
                 46.47   -0.14344713812646
                  16.7   -0.33243762329603
                 6.356   -0.21865906750347
                 1.316     1.0955904138622
 s    1 1.00
                0.3897                   1
 p    3 1.00
                 22.67   0.064834021493887
                 4.977    0.34053535983101
                 1.347    0.73464640679382
 p    1 1.00
                0.3471                   1
 d    1 1.00
                  1.64                   1

6 0
 s    8 1.00
                 14710  0.00072067370873197
                  2207  0.0055504869689163
                 502.8   0.028254207662589
                 142.6    0.10639582836653
                 46.47    0.28668420124307
                  16.7    0.44843796582416
                 6.356    0.26464118141135
                 1.316   0.015326060993048
 s    8 1.00
                 14710  -0.00032119389049893
                  2207  -0.0025461915683188
                 502.8  -0.012643359507821
                 142.6   -0.05195749170489
                 46.47   -0.14344713812646
                  16.7   -0.33243762329603
                 6.356   -0.21865906750347
                 1.316     1.0955904138622
 s    1 1.00
                0.3897                   1
 p    3 1.00
                 22.67   0.064834021493887
                 4.977    0.34053535983101
                 1.347    0.73464640679382
 p    1 1.00
                0.3471                   1
 d    1 1.00
                  1.64                   1

7 0
 s    3 1.00
                 13.01   0.033498726389998
                 1.962    0.23480080117413
                0.4446     0.8136829578829
 s    1 1.00
                 0.122                   1
 p    1 1.00
                 0.727                   1

8 0
 s    8 1.00
                 14710  0.00072067370873197
                  2207  0.0055504869689163
                 502.8   0.028254207662589
                 142.6    0.10639582836653
                 46.47    0.28668420124307
                  16.7    0.44843796582416
                 6.356    0.26464118141135
                 1.316   0.015326060993048
 s    8 1.00
                 14710  -0.00032119389049893
                  2207  -0.0025461915683188
                 502.8  -0.012643359507821
                 142.6   -0.05195749170489
                 46.47   -0.14344713812646
                  16.7   -0.33243762329603
                 6.356   -0.21865906750347
                 1.316     1.0955904138622
 s    1 1.00
                0.3897                   1
 p    3 1.00
                 22.67   0.064834021493887
                 4.977    0.34053535983101
                 1.347    0.73464640679382
 p    1 1.00
                0.3471                   1
 d    1 1.00
                  1.64                   1

[5d]
[7f]
[9g]

[MO]
 Sym= A
 Ene=               0
 Spin= Alpha
 Occup=    1.00000
   1    -0.00021834450134394
   2    6.0707808945187e-05
   3    0.0032128680459297
   4    0.00047295672108692
   5    1.3499076305894e-05
   6    9.1122399826748e-08
   7    0.0015627962285202
   8    -0.00014836416996429
   9    0.00041112425238794
  10    -3.2610251975132e-05
  11    0.00010238074911189
  12    1.2077061418633e-05
  13    7.9817489276117e-05
  14    9.8992302878567e-06
  15       1.0019115231578
  16    0.0042257703198673
  17    -0.0074236386287948
  18    0.00057745950598956
  19    4.5701161476809e-05
  20    -0.0011234502824256
  21    0.0015821454124595
  22    6.9384276965172e-05
  23    -0.0007254456956942
  24    -8.3182999432672e-05
  25    -0.00011360924078184
  26    -1.1016294470871e-05
  27    -0.00033407452991028
  28    3.480712378414e-06
  29    0.00096725431472648
  30    0.0015452727152659
  31    -0.00022085961053865
  32    -1.0201181813126e-05
  33    -7.058739072272e-05
  34    0.0001453327555665
  35    0.0006559377881506
  36    -8.5269790354205e-05
  37    -7.7207316399878e-05
  38    0.00030699009132733
  39    0.00014323496890345
  40    0.00013829789703034
  41    -0.00075917107720457
  42    -0.00039548825164492
  43    4.1333057474274e-05
  44    2.9526293147198e-05
  45    -0.00011121580267064
  46    8.3717166692456e-05
  47    6.8829707750256e-05
  48    0.00016202156031801
  49    0.00068894646151414
  50    -0.00018962405857004
  51    -7.3201349279207e-05
  52    -0.00030363265278592
  53    0.00014230733325053
  54    0.00014644208382189
  55    0.00078526144507735
  56    -0.00041715897557292
  57    4.1666147069456e-05
  58    3.0950414150693e-05
  59    0.00011800972174012
  60    8.8102855071559e-05
  61    -7.3420183054577e-05
  62    7.6985058476916e-06
  63    2.0060895564128e-05
  64    -0.00024061449216017
  65    -1.8935968319051e-06
  66    -9.5568949316162e-06
  67    9.1010648196088e-06
  68    2.8299331995868e-05
  69    8.6422873406326e-05
  70    -4.314060080374e-06
  71    -2.4548186207344e-06
  72    -1.3124786843978e-05
  73    1.1268489454046e-05
  74    2.6581620963666e-05
  75    -1.0753656635729e-06
  76    -4.6000635885001e-05
  77    0.00042514190299683
  78    9.7293576767698e-05
  79    -8.6573774523604e-06
  80    2.4380769708368e-05
  81    -1.0840995864028e-05
  82    -8.7764258631187e-06
  83    -0.00013138609257181
  84    1.1826221032387e-05
  85    1.0135260423674e-05
  86    1.0232718056014e-05
  87    9.4938528372497e-05
  88    -7.0767608602278e-05
  89    -5.6861817279471e-05
  90    -2.5480785308142e-05
  91    -2.5825793153902e-06
  92    -1.2203816126945e-06
  93    2.3926738311421e-05
  94    1.7275241119738e-05
 Sym= A
 Ene=               1
 Spin= Alpha
 Occup=    1.00000
   1       1.0019115230358
   2    0.0042257730733469
   3    -0.0074236382975142
   4    -0.00057745948808712
   5    -0.0005221439643109
   6    0.0009957848946794
   7    -0.0015821457412289
   8    -0.0003026339879339
   9    0.00066294592067334
  10    2.860241143839e-05
  11    -0.00010012840675428
  12    0.0002125539700097
  13    -0.0002695351828169
  14    5.3790171869447e-05
  15    -0.00021834664106941
  16    6.0707881672186e-05
  17     0.003212869410181
  18    -0.00047295878824261
  19    1.1732281691143e-05
  20    6.6737242727363e-06
  21    -0.0015627974207879
  22    7.7074832903507e-05
  23    -0.00043022571294041
  24    -4.6719924094496e-05
  25    8.3715346449501e-05
  26    -1.6142062276268e-05
  27    7.1671352164355e-05
  28    -5.9763714123438e-05
  29    -4.5998118757964e-05
  30    0.00042514337566464
  31    -9.7293708724013e-05
  32    4.6927637123966e-06
  33    -2.54431106619e-05
  34    -1.0840879912948e-05
  35    -8.776159957942e-06
  36    -0.00013138619564252
  37    -1.1833388208209e-05
  38    1.3893440126197e-05
  39    -3.7950074225623e-06
  40    -9.4943262517973e-05
  41    -8.9717693530496e-05
  42    1.3859243401173e-05
  43    -2.0190482077442e-05
  44    -1.0874292906568e-05
  45    9.3602113050167e-06
  46    2.6981172121336e-05
  47    -1.3669651269583e-05
  48    7.6985183788668e-06
  49    2.0056449516839e-05
  50    -0.0002406189795004
  51    1.8928481582334e-06
  52    -3.7210992952655e-06
  53    -1.2664534999195e-05
  54    -2.8299829457927e-05
  55    7.2690319425299e-05
  56    4.6944653143258e-05
  57    -1.5740700219997e-05
  58    -1.0828654083959e-05
  59    -1.5303108311613e-05
  60    1.8911155843012e-05
  61    7.493615305396e-06
  62    0.00016202176844774
  63    0.00068894836633399
  64    -0.00018962202981567
  65    7.3206224836835e-05
  66    -0.00019179900763276
  67    -0.00027505690080397
  68    -0.00014643876117087
  69    0.00047147745138867
  70    0.00075390193732827
  71    -8.1540746315698e-05
  72    6.3513834971874e-05
  73    -0.00012840414262876
  74    1.6969366794382e-05
  75    4.810850030064e-05
  76    0.00096725837084688
  77    0.0015452742887224
  78    0.00022085979335094
  79    -4.4128269092676e-05
  80    5.6030164244539e-05
  81    0.00014533245962428
  82    0.00065593751705889
  83    -8.52700343987e-05
  84    7.720418590227e-05
  85    0.00033747768618332
  86    2.9449446459189e-05
  87    -0.00013830006773715
  88    -0.00085520620507534
  89    -3.708288351597e-05
  90    9.1119737687317e-05
  91    -8.8443479280671e-06
  92    -1.1642532911889e-05
  93     0.000112461504714
  94    -7.4371506448557e-05
 Sym= A
 Ene=               2
 Spin= Alpha
 Occup=    1.00000
   1    -0.00019163982786369
   2    0.00029116629274204
   3    0.0037755942814484
   4    -0.00039920392320573
   5    -0.00098091546375396
   6    3.3078250712699e-05
   7    0.00026226827464979
   8    -0.001616259080401
   9    0.00037321573750973
  10    -7.9475412350808e-05
  11    -2.6452953687726e-05
  12    9.2653921150944e-06
  13    -8.1847267712824e-05
  14    9.1711018013056e-05
  15    6.097979826508e-05
  16    7.089331536631e-05
  17    -0.001550345008102
  18    0.0001206830211676
  19    -9.5909215134076e-06
  20    6.9661028266446e-07
  21    0.00081366584676532
  22    0.0003905303449102
  23    -1.4223871574434e-05
  24    -1.7990904872067e-05
  25    -1.1090098322958e-06
  26    1.6173608591862e-05
  27    -8.2060127590919e-05
  28    -1.9554976441276e-05
  29    0.00013047693917046
  30    -0.00012757665684866
  31    1.0956065158424e-05
  32    -2.4861839121256e-05
  33    -7.683789691758e-06
  34    -2.4304619867127e-05
  35    -5.0357164657302e-05
  36    0.00018783397687559
  37    1.5014251593264e-05
  38    -8.3892109117123e-06
  39    -3.1628057217359e-05
  40    -9.4920523080433e-06
  41    2.3362025631985e-05
  42    7.6084480610989e-05
  43    1.026076504921e-05
  44    5.3742301915322e-06
  45    -7.3626653407374e-06
  46    -1.4201492426494e-05
  47    -1.9200568356388e-08
  48    -2.2643089758779e-05
  49    -3.8415387203949e-05
  50    0.00011480390772219
  51    2.0893321608905e-05
  52    -1.0228352531817e-05
  53    5.3467574241475e-06
  54    -0.00019024034198541
  55    -4.2383770800075e-05
  56    -6.3907951086661e-06
  57    -8.4514973398583e-06
  58    4.2988028239806e-07
  59    4.1732184463866e-06
  60    -4.5307046853352e-06
  61    2.6073770292337e-06
  62    9.7409856539573e-05
  63    0.00016196762880494
  64    -0.00070710823860454
  65    -3.7006913226463e-06
  66    9.3018551936688e-06
  67    5.6139100308829e-05
  68    -3.7723334067894e-05
  69    0.00044235973342194
  70    8.9605174343638e-05
  71    5.5076884026986e-06
  72    -4.7122469472724e-06
  73    -2.2915174548031e-05
  74    1.0419589798458e-05
  75    1.6171167730545e-05
  76    -0.00022827450993438
  77    -6.7393767295563e-05
  78    1.0491380074531e-05
  79    0.00016321778981997
  80    -1.6379288234312e-05
  81       1.0010290553307
  82    0.00073827667046613
  83    -0.0058739515501647
  84    0.00072424289157802
  85    0.0023156590144997
  86    -5.7565050150859e-05
  87    -0.00026677609721647
  88    -0.00057804516187032
  89    -7.421387834258e-05
  90    5.4620358119246e-05
  91    4.5614541867778e-06
  92     6.88805729279e-07
  93    9.6496942760962e-05
  94    -7.3950700180309e-05
 Sym= A
 Ene=               3
 Spin= Alpha
 Occup=    1.00000
   1    6.0987971724876e-05
   2    7.0894012918846e-05
   3    -0.0015504723094314
   4    -0.00012071404438134
   5    -8.0172752923862e-06
   6    -5.4439674665638e-06
   7    -0.00081372788484358
   8    0.0003310897948383
   9    0.0002074930491278
  10    -5.6087065805017e-06
  11    8.7887148768592e-06
  12    4.094086528019e-05
  13    -7.4896000955091e-05
  14    1.7445107016711e-05
  15    -0.00019153153332517
  16    0.00029198086547273
  17    0.0037757698259356
  18    0.00039956383381885
  19    -0.00083386249691227
  20    -0.00051967048439603
  21    -0.00026228369311976
  22    -0.0012131659254859
  23    -0.0011312594957994
  24    -3.8893349401579e-05
  25    -6.8774337596655e-05
  26    9.0486050385975e-05
  27    -5.8445109425895e-05
  28    -6.6220606999119e-05
  29    -0.00022825132481205
  30    -6.757019801678e-05
  31    -1.0469932864362e-05
  32    0.00013312880023996
  33    9.5773679383563e-05
  34       1.0010290513499
  35    0.00073381072918816
  36    -0.0058792173579551
  37    -0.00072550124096346
  38    0.0019793875199845
  39    0.0012092009611335
  40    0.00026593303970744
  41    -0.00053586932964811
  42    -0.00022374534288508
  43    1.2713279509796e-05
  44    4.0898190490107e-05
  45    -8.3030932882498e-05
  46    7.2266691223436e-05
  47    6.1716661019931e-05
  48    9.7403457029552e-05
  49    0.00016193990869801
  50    -0.00070709506608663
  51    3.7096633685543e-06
  52    3.6179777997544e-05
  53    -4.3987775777475e-05
  54    3.7722735191367e-05
  55    0.00042794404263717
  56    0.00014357089978065
  57    1.8362678854829e-05
  58    -1.2161229489455e-05
  59    2.8134250288742e-06
  60    1.7833786335611e-05
  61    -1.1647219158043e-05
  62    -2.2642644982454e-05
  63    -3.8402187598781e-05
  64    0.00011486155060959
  65    -2.0858334959101e-05
  66    -6.1921728105263e-06
  67    -9.7625020208254e-06
  68    0.00019026573532811
  69    -3.9913699540341e-05
  70    -1.5668139582044e-05
  71    -7.4313018076412e-06
  72    -9.2934589911915e-07
  73    6.2131726717141e-06
  74    -3.9434907308639e-06
  75    -2.4723225898908e-06
  76    0.0001304808561795
  77    -0.0001275881009849
  78    -1.0958429324633e-05
  79    -2.5374517433142e-05
  80    -5.7782629885087e-06
  81    -2.4304958034176e-05
  82    -5.0351284312359e-05
  83    0.00018785051481624
  84    -1.4983822543533e-05
  85    -2.3107747057983e-05
  86    2.318515394685e-05
  87    9.501218726936e-06
  88    5.8280428590843e-05
  89    -5.4190884895829e-05
  90    1.5008753181269e-05
  91    4.6642854107771e-06
  92    2.1341098806162e-06
  93    -1.1461245772322e-05
  94    -2.6687866708583e-06
 Sym= A
 Ene=               4
 Spin= Alpha
 Occup=    1.00000
   1    6.5848508044149e-05
   2    8.8266354911376e-05
   3    -0.0014106652398435
   4    -0.00014613817294859
   5    2.8040061598308e-05
   6    -2.3402875547126e-05
   7    -0.00062655586729204
   8    -0.00018106793431159
   9    0.00033295595023173
  10    2.3975984446897e-05
  11    4.1298102705474e-05
  12    -6.3429981282087e-05
  13    -6.7903302016566e-05
  14    -1.4953233714203e-05
  15    -0.00017566564033369
  16    0.00029925832970082
  17    0.0034899840045522
  18    0.00039401174634483
  19    0.00080259076320283
  20    -0.00050386732988966
  21    -0.00017739242051622
  22    0.0011681575835824
  23    -0.0010724767506128
  24    -2.401021656423e-05
  25    -4.2449025937242e-05
  26    -9.5682757244255e-05
  27    -5.8836799114456e-05
  28    7.5892837943026e-05
  29    -0.00023980753621504
  30    -6.6116995148395e-05
  31    -6.0931650353216e-06
  32    -0.00013182770815962
  33    0.00010013592846594
  34    9.2262124368793e-05
  35    0.00015330325195193
  36    -0.00065869179130492
  37    4.7468514101004e-07
  38    -3.66263101154e-05
  39    -3.8762644644377e-05
  40    3.8592789445696e-05
  41    -0.00039426427250899
  42    0.00013726592033907
  43    1.7962086638082e-05
  44    -1.1826440555731e-05
  45    -1.4026014296722e-06
  46    1.4658254421115e-05
  47    1.1398999670553e-05
  48       1.0010206041974
  49    0.00085133395393262
  50    -0.0056538060817297
  51    -0.00075140082358241
  52    -0.0018882516374399
  53    0.0011281981445979
  54    0.0002604040172742
  55    0.0005466811350154
  56    -0.00028145277223205
  57    1.1146005867329e-05
  58    4.250728877413e-05
  59    8.5613185702264e-05
  60    7.1392028796133e-05
  61    -5.787346751506e-05
  62    2.2581360200454e-05
  63    4.9656093115151e-05
  64    -2.3111772106432e-05
  65    2.407818371177e-05
  66    -4.0902879582486e-06
  67    -1.0244874614075e-05
  68    -1.8056424365157e-05
  69    -1.7411350877109e-05
  70    -1.9629831252483e-05
  71    1.2894643310764e-05
  72    5.1997370391814e-06
  73    2.9767975125001e-06
  74    -8.7537227505535e-06
  75    -5.8082936076837e-06
  76    7.2604210445547e-05
  77    4.7996953999465e-05
  78    -5.4273624869787e-05
  79    -1.075145922969e-05
  80    -1.8347281755864e-05
  81    -2.4457320026225e-05
  82    -4.3159548876133e-05
  83    0.00014698740105742
  84    -1.0580244762137e-05
  85    7.0304846864258e-06
  86    6.1830574245512e-06
  87    0.00012773150268197
  88    4.4134304405123e-05
  89    -4.6749498187539e-05
  90    2.145899827982e-06
  91    6.5969450177722e-07
  92    -1.2923949827711e-05
  93    -1.978749555759e-06
  94    -2.3011988491892e-06
 Sym= A
 Ene=               5
 Spin= Alpha
 Occup=    1.00000
   1    -0.00017593784153989
   2    0.00029710540296877
   3    0.0034892799735831
   4    -0.00039305175217098
   5    0.00044176654309433
   6    0.00083513050533822
   7    0.00017721457659897
   8    0.00047520435752556
   9    0.0015130369256619
  10    6.9340279527797e-05
  11    -7.4646491457286e-05
  12    9.119936624254e-05
  13    -4.8658288397651e-06
  14    -4.4466115520685e-05
  15    6.5844710029962e-05
  16    8.8278574670745e-05
  17    -0.0014105077086021
  18    0.00014604489264545
  19    1.2500133837093e-05
  20    3.4068388074778e-05
  21    0.00062610017206559
  22    9.7588108593993e-06
  23    -0.00037938593123751
  24    7.7274331216102e-05
  25    4.335816052234e-05
  26    4.3123414492309e-05
  27    -3.7161173098761e-05
  28    -7.6491013456189e-06
  29    7.2575457065406e-05
  30    4.8550959430467e-05
  31    5.4265702801139e-05
  32    -1.8489423073466e-05
  33    1.0509991760373e-05
  34    -2.4464131341976e-05
  35    -4.3194632859702e-05
  36    0.00014691840600119
  37    1.0655139839471e-05
  38    9.1364392623122e-06
  39    -1.844157747335e-06
  40    -0.00012763693673262
  41    1.4799920115199e-05
  42    6.2618017707739e-05
  43    1.1459653799802e-05
  44     1.71979342752e-06
  45    5.7125752141901e-06
  46    3.4025652913052e-06
  47    1.6574311448393e-06
  48    2.2597076740305e-05
  49    4.9671925540436e-05
  50    -2.3288428289802e-05
  51    -2.4048891249616e-05
  52    -8.6535181505523e-06
  53    6.8539257957156e-06
  54    1.8150506751638e-05
  55    -2.4850165589167e-05
  56    8.3435072613338e-06
  57    7.7191918142239e-06
  58    7.4088155930164e-06
  59    -7.3687193286136e-06
  60    -1.1739522681216e-05
  61    2.4339346549999e-06
  62       1.0010206037635
  63    0.00086337659477653
  64    -0.0056396044438737
  65    0.00074797984674464
  66    -0.0010669026941004
  67    -0.0019138170848603
  68    -0.00026266386739334
  69    0.00033559235779337
  70    0.00052199107620776
  71    -7.2830648937126e-05
  72    6.587906755578e-05
  73    -8.224208723631e-05
  74    2.3001753604007e-05
  75    2.8937077388177e-05
  76    -0.000239855845987
  77    -6.5659015910854e-05
  78    6.1484451839436e-06
  79    -6.4147063001745e-05
  80    -0.00015273157843421
  81    9.2275972531616e-05
  82    0.00015336975597473
  83    -0.00065870805613885
  84    -4.4611878353458e-07
  85    -5.0961819843212e-05
  86    1.5280430184126e-05
  87    -3.8584833606673e-05
  88    -0.0002726899438554
  89    -0.00031596827815059
  90    9.1168379603524e-06
  91    -1.5955007305333e-05
  92    -1.9151277107341e-05
  93    9.570654066589e-06
  94    -3.9539752757066e-06
 Sym= A
 Ene=               6
 Spin= Alpha
 Occup=    1.00000
   1    0.0010630161907604
   2     0.014387672388891
   3     0.011396296891456
   4    -0.016490645393095
   5     0.018545095610952
   6      0.03211554024172
   7    -0.020466405355191
   8     0.016605521848252
   9      0.04428579006153
  10    -0.002319292213849
  11    -0.0070512473894371
  12    -0.035491488966967
  13     0.013496177744411
  14     0.017328762053498
  15    0.0016298354685688
  16      0.01384986487444
  17     0.016364010919969
  18    -0.023906059145478
  19    -0.0013808744743571
  20    -0.0051206073106686
  21    -0.019316700955587
  22    0.00056688066990899
  23    -0.013527048822201
  24     0.000447869065572
  25    -0.00013698096941944
  26     0.000875163913217
  27    -1.8346027571454e-05
  28    0.00068370614497494
  29    -0.0057254435256872
  30      0.00179979820499
  31    0.00010334769385577
  32    -0.00068713606028259
  33    0.00022429442848009
  34    0.0015063456800532
  35    0.0070608748781502
  36    0.00065915613911386
  37    -0.012186938388004
  38    -0.00014196175359212
  39    0.0023579465708877
  40    -0.0032957307875018
  41     0.001304574535057
  42    0.0043547829718925
  43    0.0005374555851023
  44    -6.226446990811e-05
  45    0.0002511178792512
  46    -0.0010665214593522
  47    -0.00085484921994787
  48    -0.00031892938076914
  49    -0.0025543403742711
  50    -0.0035472570340611
  51    0.0063914601347761
  52     0.002010539303317
  53    -0.0013512151899952
  54    0.0052554751291212
  55    0.0017962074176464
  56    -0.00055849217152628
  57    -0.00025048138855975
  58     -0.00019283950438
  59    0.00015012408127669
  60    0.00040094743812079
  61    0.0003968900175011
  62    0.0015108543956766
  63    -0.014287568520225
  64    -0.049677595985265
  65    -0.0061221235389141
  66     0.032853359242237
  67     0.031839024338866
  68    -0.0051179211052392
  69     0.031587940119074
  70     0.028688072158728
  71    -0.00011910649102925
  72    -0.00028775505665138
  73    -0.00045363771720177
  74    -0.00036000911402965
  75    0.00070842612594879
  76     0.023195588875792
  77     0.016577481889771
  78    -0.00067467286615859
  79    -0.00077121357847535
  80    -0.00068110996345612
  81    0.00031370231619016
  82    0.0023070651216755
  83    -0.00096550651708451
  84     -0.32146726348559
  85      0.11955502448622
  86      0.56892369802954
  87     -0.22254359207633
  88     0.079932448397284
  89      0.39194711333616
  90    -0.00044640390739635
  91    0.0047912403027393
  92     0.012007303047784
  93    -0.0049332111363537
  94    -0.0061200588596322
 Sym= A
 Ene=               7
 Spin= Alpha
 Occup=    1.00000
   1    0.0011368897312192
   2     0.033207851167282
   3     0.088477048519323
   4     0.042278904587763
   5    0.0041325672811322
   6    -0.010734073296439
   7     0.017773107401152
   8    -0.014038649081684
   9    -0.0095812329690937
  10    0.00033206487057044
  11    -0.0012452089696956
  12    0.0010671586230855
  13    0.0015877131239751
  14    0.00067590828641344
  15    0.0028822275379472
  16    0.0036159937560756
  17    -0.011475020422277
  18    0.00069927248011816
  19    0.0018328236066436
  20    -0.00061108516071641
  21     0.030542702759731
  22     0.018333131283518
  23     0.010274566125937
  24    -0.023398292630435
  25     -0.01033369871043
  26     0.017186740729276
  27     0.011743884681596
  28     0.026110695754702
  29    -0.050810828898108
  30    -0.046625203830724
  31    -0.0018851329040541
  32    -0.0029577999828272
  33    0.00070034776844753
  34    -0.00073610071987891
  35    -0.00023737223828031
  36    0.0092557991519352
  37    -0.0035879667702775
  38    0.0015470906360737
  39    -0.0014560984485282
  40    -0.0052079226852111
  41     0.001585657993434
  42    0.00051047243126397
  43    -0.00058028444569208
  44    -0.00022718546385094
  45    0.00031616306712652
  46    0.00029991335387774
  47    0.00030880400940982
  48    0.0015215921448374
  49    -0.0064585582650061
  50    -0.019453847389996
  51      0.54578256828152
  52     0.018339005474441
  53      0.38661521912586
  54      0.37962400955964
  55     0.014399755335518
  56      0.26647221790362
  57    0.0069912999225417
  58    0.0026193811740549
  59    -0.0062412255608563
  60    -0.0037399923407638
  61    -0.009419187240767
  62    8.616781984813e-05
  63    -0.0015527736883172
  64    -0.0053326564664829
  65    -0.0031260961845532
  66    0.0021208348183683
  67    0.0044828399862968
  68    -0.0041520955182554
  69    0.0055566424967248
  70     0.005066772622643
  71    -2.1889475459728e-05
  72    -0.00048529943499315
  73    -0.00024836429004817
  74    0.00031446572996132
  75    -0.00022082107702098
  76     0.010505949597349
  77    -0.030899781912247
  78    -0.003468129270128
  79    -0.0010291422469176
  80    0.0014693339264597
  81    0.00093037613603687
  82    -0.0027519265789987
  83    -0.020427766910941
  84    -0.0083444589112823
  85    -0.0096368366637405
  86    0.0021258615994235
  87    -0.0060922447982354
  88    -0.012578910489343
  89    0.0016839433780717
  90    -7.8034267659728e-05
  91    -0.00011439944375451
  92    -0.00017530305087953
  93    0.00068223834551885
  94    0.00064051990979201
 Sym= A
 Ene=               8
 Spin= Alpha
 Occup=    1.00000
   1    -0.0028822539191356
   2    -0.0036161417050039
   3     0.011474918186764
   4    0.0006993444332891
   5    -0.0012817800096314
   6    -0.0014457153597795
   7     0.030542707751083
   8    -0.021014188461278
   9    -0.00026850352620153
  10      0.03005658313733
  11     0.022004615092682
  12    -0.0038700703747355
  13    -0.0078997436962315
  14     0.017445680169542
  15    -0.0011368906425162
  16     -0.03320788795289
  17    -0.088477043375174
  18     0.042278944397757
  19    0.0017881176096933
  20    -0.011362275680371
  21     0.017773089027524
  22     0.016948461510168
  23    -0.0012782892454611
  24    0.00093658240841233
  25    0.0014163384139058
  26    0.0014701319971859
  27    -0.00085525955412209
  28    -3.725080179912e-05
  29    -0.010505959084729
  30     0.030899817609702
  31    -0.0034681292724711
  32    0.00015659668253621
  33    0.0017870527026152