[Molden Format]
made by pyscf v[2.0.1]
[Atoms] (AU)
C   1   6     0.00000000000000     0.00000000000000     0.00000000000000
C   2   6     2.85272299873892     0.00000000000000     0.00000000000000
H   3   1     3.62066923017674     0.00000000000000     1.90331545357504
F   4   9     3.65943188126013    -2.04308229183900    -1.24074875274501
F   5   9     3.65943188126013     2.04308229183900    -1.24074875274501
F   6   9    -0.80670888252121    -0.86712147444210     2.22749704090168
H   7   1    -0.76794623143782     1.87439981510865    -0.33050726003861
F   8   9    -0.80670888252121    -1.57667650804493    -1.79658952118831
[GTO]
1 0
 s    8 1.00
                  6665  0.00069158396281299
                  1000  0.0053257961529341
                   228   0.027060721042034
                 64.71    0.10165684614077
                 21.06     0.2745748236174
                 7.495    0.44829431892377
                 2.797    0.28490261071525
                0.5215   0.015194859206082
 s    8 1.00
                  6665  -0.00029326965268655
                  1000  -0.0023180354739745
                   228  -0.011499786038565
                 64.71  -0.046826727009787
                 21.06   -0.12846616875047
                 7.495   -0.30126627246289
                 2.797   -0.25563070233011
                0.5215      1.093793361012
 s    1 1.00
                0.1596                   1
 p    3 1.00
                 9.439   0.056979251590039
                 2.002    0.31320721150073
                0.5456    0.76037674173753
 p    1 1.00
                0.1517                   1
 d    1 1.00
                  0.55                   1

2 0
 s    8 1.00
                  6665  0.00069158396281299
                  1000  0.0053257961529341
                   228   0.027060721042034
                 64.71    0.10165684614077
                 21.06     0.2745748236174
                 7.495    0.44829431892377
                 2.797    0.28490261071525
                0.5215   0.015194859206082
 s    8 1.00
                  6665  -0.00029326965268655
                  1000  -0.0023180354739745
                   228  -0.011499786038565
                 64.71  -0.046826727009787
                 21.06   -0.12846616875047
                 7.495   -0.30126627246289
                 2.797   -0.25563070233011
                0.5215      1.093793361012
 s    1 1.00
                0.1596                   1
 p    3 1.00
                 9.439   0.056979251590039
                 2.002    0.31320721150073
                0.5456    0.76037674173753
 p    1 1.00
                0.1517                   1
 d    1 1.00
                  0.55                   1

3 0
 s    3 1.00
                 13.01   0.033498726389998
                 1.962    0.23480080117413
                0.4446     0.8136829578829
 s    1 1.00
                 0.122                   1
 p    1 1.00
                 0.727                   1

4 0
 s    8 1.00
                 14710  0.00072067370873197
                  2207  0.0055504869689163
                 502.8   0.028254207662589
                 142.6    0.10639582836653
                 46.47    0.28668420124307
                  16.7    0.44843796582416
                 6.356    0.26464118141135
                 1.316   0.015326060993048
 s    8 1.00
                 14710  -0.00032119389049893
                  2207  -0.0025461915683188
                 502.8  -0.012643359507821
                 142.6   -0.05195749170489
                 46.47   -0.14344713812646
                  16.7   -0.33243762329603
                 6.356   -0.21865906750347
                 1.316     1.0955904138622
 s    1 1.00
                0.3897                   1
 p    3 1.00
                 22.67   0.064834021493887
                 4.977    0.34053535983101
                 1.347    0.73464640679382
 p    1 1.00
                0.3471                   1
 d    1 1.00
                  1.64                   1

5 0
 s    8 1.00
                 14710  0.00072067370873197
                  2207  0.0055504869689163
                 502.8   0.028254207662589
                 142.6    0.10639582836653
                 46.47    0.28668420124307
                  16.7    0.44843796582416
                 6.356    0.26464118141135
                 1.316   0.015326060993048
 s    8 1.00
                 14710  -0.00032119389049893
                  2207  -0.0025461915683188
                 502.8  -0.012643359507821
                 142.6   -0.05195749170489
                 46.47   -0.14344713812646
                  16.7   -0.33243762329603
                 6.356   -0.21865906750347
                 1.316     1.0955904138622
 s    1 1.00
                0.3897                   1
 p    3 1.00
                 22.67   0.064834021493887
                 4.977    0.34053535983101
                 1.347    0.73464640679382
 p    1 1.00
                0.3471                   1
 d    1 1.00
                  1.64                   1

6 0
 s    8 1.00
                 14710  0.00072067370873197
                  2207  0.0055504869689163
                 502.8   0.028254207662589
                 142.6    0.10639582836653
                 46.47    0.28668420124307
                  16.7    0.44843796582416
                 6.356    0.26464118141135
                 1.316   0.015326060993048
 s    8 1.00
                 14710  -0.00032119389049893
                  2207  -0.0025461915683188
                 502.8  -0.012643359507821
                 142.6   -0.05195749170489
                 46.47   -0.14344713812646
                  16.7   -0.33243762329603
                 6.356   -0.21865906750347
                 1.316     1.0955904138622
 s    1 1.00
                0.3897                   1
 p    3 1.00
                 22.67   0.064834021493887
                 4.977    0.34053535983101
                 1.347    0.73464640679382
 p    1 1.00
                0.3471                   1
 d    1 1.00
                  1.64                   1

7 0
 s    3 1.00
                 13.01   0.033498726389998
                 1.962    0.23480080117413
                0.4446     0.8136829578829
 s    1 1.00
                 0.122                   1
 p    1 1.00
                 0.727                   1

8 0
 s    8 1.00
                 14710  0.00072067370873197
                  2207  0.0055504869689163
                 502.8   0.028254207662589
                 142.6    0.10639582836653
                 46.47    0.28668420124307
                  16.7    0.44843796582416
                 6.356    0.26464118141135
                 1.316   0.015326060993048
 s    8 1.00
                 14710  -0.00032119389049893
                  2207  -0.0025461915683188
                 502.8  -0.012643359507821
                 142.6   -0.05195749170489
                 46.47   -0.14344713812646
                  16.7   -0.33243762329603
                 6.356   -0.21865906750347
                 1.316     1.0955904138622
 s    1 1.00
                0.3897                   1
 p    3 1.00
                 22.67   0.064834021493887
                 4.977    0.34053535983101
                 1.347    0.73464640679382
 p    1 1.00
                0.3471                   1
 d    1 1.00
                  1.64                   1

[5d]
[7f]
[9g]

[MO]
 Sym= A
 Ene=               0
 Spin= Alpha
 Occup=    1.00000
   1        1.001914196701
   2    0.0042324545950502
   3    -0.0074769212759066
   4    -0.00057726971442729
   5    -0.0010700541392126
   6    0.00023673159857014
   7    -0.0015865182235605
   8    -0.00059640191091306
   9    0.00022758523688972
  10    0.00031614635955672
  11    -1.250988015432e-05
  12    7.5302207832203e-05
  13    -0.00010432712589963
  14    0.00011468992160985
  15    -0.00023176208217484
  16    3.147836700555e-05
  17     0.003284944278965
  18    -0.00047631223238082
  19    1.9285411611873e-05
  20    -4.1873623637138e-07
  21    -0.0016080580571568
  22    0.00011494663518464
  23    -0.0003764864383158
  24    -7.6067369048884e-05
  25    -7.4026040856278e-07
  26    1.7472115904618e-06
  27    5.1212690716001e-05
  28    -0.00011378160065227
  29    -2.12170326086e-05
  30    0.00040572855041642
  31    -9.7793695815507e-05
  32    9.3456426782256e-07
  33    -5.5791765420261e-05
  34    -3.4520770378341e-06
  35    8.0834116658622e-06
  36    -0.00017063309095542
  37    -2.6951326039707e-05
  38    1.5413511283671e-05
  39    -1.0291431980663e-06
  40    -7.3245603728801e-05
  41    -0.00010444866892123
  42    -4.3889262979781e-06
  43    -1.8983423182552e-05
  44    -9.2573666958122e-06
  45    1.0201277137976e-06
  46    3.1920694445956e-05
  47    -1.4986858721867e-05
  48    1.0580449155109e-05
  49    2.5270745821711e-05
  50    -0.00025722394057024
  51    1.8026698832181e-06
  52    -3.3474555883846e-07
  53    -7.8231465489688e-06
  54    -8.8046697570661e-06
  55    3.192377444531e-05
  56    -1.0852972042763e-05
  57    -1.5479246409409e-05
  58    -4.7647246115647e-06
  59    -1.5532237858279e-05
  60    1.7888104108956e-05
  61    1.0216807012718e-05
  62    0.00015687226440124
  63    0.00067944403542181
  64    -0.00015813173172985
  65    7.3479668541491e-05
  66    9.3669413058418e-05
  67    -0.00032179519917613
  68    -0.00014282540393739
  69    -0.0003010824816532
  70    0.00082030924639385
  71    -0.00012453573036007
  72    7.6576957222416e-05
  73    8.3682790774278e-05
  74    -9.3834404283846e-06
  75    -1.8507733769284e-05
  76    0.00094191893132996
  77     0.001528905573476
  78    0.00021872211767665
  79    -6.5512241984618e-05
  80    6.0771707782508e-07
  81    0.00014231830631171
  82    0.00064954816571986
  83    -5.0526146609996e-05
  84    8.3367191767659e-05
  85    0.0001957809079314
  86    0.00027582895234435
  87    -0.00016190553195486
  88    -0.00052130471171173
  89    -0.00066559220615099
  90    -5.486236581054e-05
  91    -6.2929648711812e-05
  92    -0.00013157462425758
  93    2.5552581823778e-05
  94    -4.1203782164363e-05
 Sym= A
 Ene=               1
 Spin= Alpha
 Occup=    1.00000
   1    -0.0002317629611016
   2    3.1476493542442e-05
   3    0.0032849436173958
   4    0.00047630857238558
   5    2.9373806206604e-06
   6    1.906504695347e-05
   7     0.001608057353757
   8    -0.00035080640819012
   9    0.00017857651925463
  10    -8.9384392977816e-06
  11    0.00011192434096929
  12    1.5414912254967e-05
  13    8.9969156411631e-05
  14    2.0486817689604e-05
  15       1.0019141967187
  16    0.0042324527911768
  17    -0.0074769236021482
  18    0.0005772738932923
  19    4.731879285847e-05
  20    -0.0010949071626084
  21    0.0015865197655621
  22    0.00012056341689235
  23    -0.00062686131513571
  24    -7.8452407170293e-05
  25    -0.00011512009105401
  26    -5.03924052085e-06
  27    -0.00033214920414178
  28    -7.5962638625234e-06
  29    0.00094191821514977
  30    0.0015289057253632
  31    -0.00021872200064885
  32    -1.0777710421599e-05
  33    -6.4622454030117e-05
  34    0.0001423183625989
  35    0.00064955047829017
  36    -5.0523901885844e-05
  37    -8.3367443669373e-05
  38    0.00030564160859035
  39    0.00014490964801981
  40    0.00016190517882484
  41    -0.00074600000411112
  42    -0.00039780599610533
  43    4.2459918192439e-05
  44    2.9650181241724e-05
  45    -0.00011175919187657
  46    8.1741515666458e-05
  47    6.9128518835155e-05
  48    0.00015687227193559
  49    0.00067944277738388
  50    -0.00015813263987746
  51    -7.3477403769337e-05
  52    -0.00030063859266177
  53    0.00014812610327075
  54    0.00014282665177845
  55    0.00075556596171018
  56    -0.00043895297699505
  57    3.9729647114365e-05
  58    3.1524074749411e-05
  59    0.00011712806517514
  60    8.5455194675496e-05
  61    -7.2199862779075e-05
  62    1.0580484058076e-05
  63    2.5270520419291e-05
  64    -0.00025722410343769
  65    -1.8018751817383e-06
  66    -7.7627431898933e-06
  67    1.0288347576405e-06
  68    8.8054553149168e-06
  69    -5.1448336166166e-06
  70    3.3323393038002e-05
  71    -3.3843191085099e-06
  72    -1.0888940853718e-05
  73    -1.3069653323031e-05
  74    2.4871092848907e-05
  75    2.9181943459631e-06
  76    -2.121573253066e-05
  77    0.00040572960603886
  78    9.7793638399273e-05
  79    -5.4781909828554e-05
  80    1.0608527201371e-05
  81    -3.4520849284373e-06
  82    8.0837733488236e-06
  83    -0.000170632498451
  84    2.6952458610482e-05
  85    1.6617777669294e-06
  86    1.5358107614649e-05
  87    7.324660124183e-05
  88    -2.2460412059057e-05
  89    -0.00010209963971368
  90    -1.8479632607337e-05
  91    1.3151629989664e-05
  92    1.122688717899e-06
  93    3.2211554557743e-05
  94    1.1719144039401e-05
 Sym= A
 Ene=               2
 Spin= Alpha
 Occup=    1.00000
   1    7.9388928265714e-05
   2    0.00011128808003805
   3    -0.0015508808622591
   4    -0.00014197972279835
   5    3.1819829622315e-05
   6    -2.2099524203835e-05
   7    -0.00065501777196839
   8    -0.00023085539546708
   9    0.00023938919610821
  10    -1.7506042965938e-05
  11    2.0434876213202e-05
  12    -5.3301288684171e-05
  13    -8.1623843152227e-05
  14    -3.4884472819586e-05
  15    -0.00018665230042953
  16    0.00027740436243042
  17    0.0036013825185898
  18    0.00039053968281009
  19    0.00080457701054446
  20    -0.00049789792152658
  21    -0.0001957245719722
  22    0.0011490151233741
  23    -0.0011089504777005
  24    -3.5801697901316e-05
  25    -6.116964172068e-05
  26    -8.7679473077261e-05
  27    -6.5573262518129e-05
  28    6.4607594688615e-05
  29    -0.00022180349200237
  30    -7.8751788911621e-05
  31    -9.6268106004988e-06
  32    -0.00012788645901217
  33    9.8173605064205e-05
  34    9.9101301113244e-05
  35    0.00016620712346518
  36    -0.00071376108802852
  37    5.0389553324854e-06
  38    -3.364633099004e-05
  39    -4.2032856918873e-05
  40    3.3484726957328e-05
  41    -0.00041724930628419
  42    0.00013935799990326
  43    1.8063974584909e-05
  44    -1.2233449586147e-05
  45    -3.071776707263e-06
  46    1.7288193355677e-05
  47    1.1671864881231e-05
  48       1.0010247614875
  49    0.00087711773389993
  50    -0.0056585367933732
  51    -0.00074007646147058
  52    -0.0018629197234315
  53    0.0011484994639598
  54    0.00026730788146049
  55    0.00057310305406126
  56    -0.00025734438051322
  57    1.3608597652805e-05
  58    4.0459015989482e-05
  59    8.3619244833043e-05
  60    7.3860618676658e-05
  61    -5.9076202304132e-05
  62    -2.5249313579401e-05
  63    -4.2927150677603e-05
  64    0.00015087312281704
  65    -1.3032366877745e-05
  66    8.2409268599096e-06
  67    -1.0074362035095e-05
  68    0.00015747202084247
  69    2.5263708127081e-05
  70    -4.1497342792573e-05
  71    -2.919446525681e-06
  72    -1.5271779080426e-07
  73    -1.067531115726e-05
  74    -3.7591816832562e-06
  75    9.0405559222933e-07
  76    5.964054392366e-05
  77    6.1136032528532e-05
  78    -3.9636870626092e-05
  79    5.0618251031226e-06
  80    -9.0269208326939e-06
  81    2.395868850295e-06
  82    9.8413907948427e-06
  83    0.00010982115690085
  84    2.6989642602239e-05
  85    8.592261314082e-06
  86    4.0702992514337e-06
  87    -2.7239099615773e-05
  88    3.3123884743247e-05
  89    3.9001466199438e-05
  90    1.3195973186092e-06
  91    4.4608690687222e-06
  92    4.1313404096277e-06
  93    -1.687424962582e-05
  94    -4.9136935175865e-06
 Sym= A
 Ene=               3
 Spin= Alpha
 Occup=    1.00000
   1    -0.00018680794151556
   2    0.00027620080327116
   3    0.0036010481232767
   4    -0.00039000535345704
   5    -0.00035003115437832
   6    0.00087732358540531
   7    0.00019566843245219
   8    -0.00089270755632096
   9    0.0013241080310864
  10    9.7259668335791e-05
  11    -7.4195499687266e-05
  12    -6.0497057868704e-05
  13    1.1281716777178e-05
  14    4.9014819939919e-05
  15    7.9390473785106e-05
  16    0.00011128417419706
  17    -0.0015508907921053
  18    0.00014194413030272
  19    -1.6195779941207e-05
  20    3.5043887848104e-05
  21    0.00065479369305122
  22    0.00019572648250824
  23    -0.00026913839694866
  24    9.231274083538e-05
  25    3.7963617284645e-05
  26    -3.094120597863e-05
  27    -1.8234660898994e-05
  28    -1.4102505757417e-05
  29    5.9612057478946e-05
  30    6.1442188175693e-05
  31    3.9627581816677e-05
  32    -8.0144681513169e-06
  33    6.5501029015997e-06
  34    2.3983346865713e-06
  35    9.8440806667287e-06
  36    0.00010979556359169
  37    -2.6979693119594e-05
  38    5.4962588054273e-06
  39    7.7687857715869e-06
  40    2.7289141578619e-05
  41    4.414885607944e-05
  42    2.5881406909212e-05
  43    1.2347577600442e-05
  44    5.6140919479192e-06
  45    6.3767929184306e-06
  46    -1.0506119486774e-05
  47    -3.5418115570395e-06
  48    -2.5252560993665e-05
  49    -4.2947718570422e-05
  50    0.00015081726526272
  51    1.3078232200162e-05
  52    -8.4731447001312e-06
  53    9.8647741664185e-06
  54    -0.00015742478801156
  55    -3.6471173486333e-05
  56    3.2107539640542e-05
  57    7.6449142829953e-06
  58    -9.1792979978151e-07
  59    -8.5257000960182e-06
  60    2.3424931202616e-06
  61    -4.007075824472e-09
  62       1.0010247599001
  63    0.00088379640162253
  64    -0.0056506594044071
  65    0.00073841195586939
  66    0.00080569752640827
  67    -0.0020296134087056
  68    -0.00026840358383925
  69    -0.00015515308913838
  70    0.00061206105763133
  71    -9.3083060697488e-05
  72    6.5276796286012e-05
  73    6.1992184570966e-05
  74    1.2317552439526e-05
  75    -2.9615964223408e-05
  76    -0.0002218014611874
  77    -7.8466027806533e-05
  78    9.6577615090516e-06
  79    7.4496193346689e-05
  80    -0.00014304518815084
  81    9.9110127206566e-05
  82    0.00016624326077543
  83    -0.00071378081574965
  84    -5.0264434978193e-06
  85    -4.7205710835516e-05
  86    -2.5771836375025e-05
  87    -3.3495822267326e-05
  88    6.4804017365151e-05
  89    -0.00043504865837153
  90    -2.1848251285217e-05
  91    -1.3621946869403e-05
  92    -1.1204029749069e-05
  93    -5.744813712901e-06
  94    1.0028279353833e-05
 Sym= A
 Ene=               4
 Spin= Alpha
 Occup=    1.00000
   1    -0.00018727466444757
   2    0.00029088301572595
   3    0.0035966572064245
   4    -0.00040823177793184
   5    -0.00065390695911752
   6    -0.00072160956693737
   7    0.00019613920834065
   8    -0.0012777510289379
   9    -0.0010057604105501
  10    3.6075660084952e-05
  11    5.6570005944796e-05
  12    9.9075167193871e-05
  13    -1.9115464804002e-05
  14    5.6320080755778e-05
  15    6.2985648143438e-05
  16    7.7878200983197e-05
  17    -0.0015167115379457
  18    0.00013295744765684
  19    7.9945359537007e-06
  20    4.709112450888e-07
  21    0.00061358824516764
  22    0.00039074687765208
  23    0.00033174752169707
  24    3.3998057552627e-05
  25    -1.6100593298768e-06
  26    5.7384238736488e-05
  27    -3.5354193600826e-05
  28    -3.7495627561876e-05
  29    5.861098820007e-05
  30    -3.9067191088687e-06
  31    -2.9155399941386e-05
  32    -5.6665663799806e-05
  33    -1.4980776587157e-05
  34    -5.0385872483939e-05
  35    -0.0001022697798702
  36    0.00032530494034695
  37    1.4710344876988e-05
  38    -3.3911598568515e-05
  39    -4.0108470444707e-06
  40    7.964177030365e-07
  41    9.4650506087035e-05
  42    9.1441159572109e-06
  43    1.3664084628833e-05
  44    2.8028557401124e-06
  45    -5.4858436614012e-06
  46    -1.0596512058363e-05
  47    2.4184562654356e-06
  48    1.9755295083775e-06
  49    1.056954420562e-05
  50    8.9177520695554e-05
  51    -2.0555696064108e-05
  52    -9.6754573349959e-06
  53    1.0444500860735e-05
  54    -1.5586764138673e-05
  55    -5.8262511362152e-05
  56    -9.861433089627e-06
  57    -3.2760338287386e-06
  58    -5.1141038745949e-06
  59    -1.714889919436e-06
  60    -1.6211831065125e-05
  61    -2.3492010512259e-06
  62    9.6268783465986e-05
  63    0.00016002100549075
  64    -0.00068756076279463
  65    -6.1365043866929e-07
  66    -3.2920814752075e-05
  67    4.4621425311234e-05
  68    -4.8455588153319e-05
  69    0.00020469595580052
  70    0.00037876664872574
  71    -2.1778274869744e-05
  72    9.9570644927784e-06
  73    -5.3807640826709e-06
  74    -7.9701320910918e-06
  75    1.3323931464237e-05
  76    -0.0002507060583272
  77    -8.3058443247503e-05
  78    4.2765672083057e-06
  79    0.00012170026490562
  80     0.000113206889465
  81       1.0010195757496
  82    0.00075668600409249
  83    -0.0057747495883437
  84    0.00069614063848279
  85    0.0015307400220806
  86    0.0017078146602842
  87    -0.00026419140399999
  88    -0.00033474345557703
  89    -0.00048588451179247
  90    -4.1337565933645e-05
  91    -5.2758364798702e-05
  92    -9.3715465783931e-05
  93    4.2394115896943e-05
  94    -5.3935273306429e-05
 Sym= A
 Ene=               5
 Spin= Alpha
 Occup=    1.00000
   1    6.2953379386624e-05
   2    7.7825463324499e-05
   3    -0.0015164008351697
   4    -0.00013293530181362
   5    1.9965525523114e-06
   6    7.9091619750603e-06
   7    -0.00061346886240321
   8    0.00039457025166603
   9    0.00032739242083066
  10    -2.7306698415912e-06
  11    3.674324921514e-05
  12    4.991771356567e-05
  13    -5.6603781785703e-05
  14    8.2154643452728e-06
  15    -0.00018756261276443
  16    0.00028877416815593
  17    0.0035962176210295
  18    0.00040730414698124
  19    -0.00082185881717979
  20    -0.00051721538515652
  21    -0.00019617045906637
  22    -0.0012121587195925
  23    -0.0010838772836557
  24    -2.9675275856152e-05
  25    -4.5597671170387e-05
  26    8.5529746369945e-05
  27    -5.7039918611052e-05
  28    -6.5394598565093e-05
  29    -0.000250709668151
  30    -8.2537713669786e-05
  31    -4.3277764581606e-06
  32    0.00013269878970936
  33    0.00010024631450876
  34       1.0010195804008
  35    0.00076822291334018
  36    -0.0057611019466603
  37    -0.00069357004034376
  38    0.0019406371267426
  39    0.0012065276014292
  40    0.00026590655381441
  41    -0.00054132575958972
  42    -0.00024819013433335
  43    1.0977744847703e-05
  44    4.4019748720714e-05
  45    -8.3243167343172e-05
  46    7.2698388687225e-05
  47    6.1427150151528e-05
  48    9.6285443404608e-05
  49    0.00016009283047165
  50    -0.00068760141075466
  51    5.9047392848247e-07
  52    3.8089586924334e-05
  53    -4.012581573843e-05
  54    4.8465996080223e-05
  55    0.00040842976733887
  56    0.00013581695794297
  57    1.8218787092697e-05
  58    -1.140569412772e-05
  59    2.761809798101e-06
  60    1.5140294825065e-05
  61    -1.2122057000056e-05
  62    1.9862808319106e-06
  63    1.0575709116954e-05
  64    8.9032764645303e-05
  65    2.0521183674051e-05
  66    8.5842294478147e-06
  67    -1.1344116684328e-05
  68     1.55279943097e-05
  69    -1.9856239580855e-05
  70    -5.5648766210967e-05
  71    1.5612735091344e-05
  72    1.4242249831343e-06
  73    2.1293652191438e-06
  74    -5.3038146419829e-06
  75     5.44827251315e-06
  76    5.8571062823671e-05
  77    -4.0187240415082e-06
  78    2.9170857185523e-05
  79    -2.4612945448407e-05
  80    -5.3206312091868e-05
  81    -5.0395108670988e-05
  82    -0.00010230476895112
  83    0.0003253294806934
  84    -1.4820187152387e-05
  85    -9.7395796427289e-06
  86    -3.2643836217779e-05
  87    -8.2291309663521e-07
  88    2.5459906206054e-05
  89    9.1611973068852e-05
  90    4.3061118458304e-06
  91    -1.8996657183988e-06
  92    -7.3948552440362e-06
  93    -1.5992224182217e-05
  94    -3.1880406695762e-06
 Sym= A
 Ene=               6
 Spin= Alpha
 Occup=    1.00000
   1    -0.0028120889744479
   2    0.00023847457678477
   3     0.037436810478927
   4    0.0024384227511376
   5    -0.0034188200973833
   6    -0.0011873250783388
   7     0.046160532657502
   8    -0.0038677430634829
   9     0.020519876215267
  10    -0.0067362975987238
  11     -0.02477760348323
  12     0.011593370500677
  13    -0.029116472090673
  14     -0.01537925056822
  15    -0.00085749900125889
  16    -0.025667877867944
  17    -0.081195547209942
  18     0.048757802901077
  19    0.0044033918184546
  20    0.0050258751299725
  21     0.053296769865166
  22    -0.0056668541203381
  23    -0.014078963302355
  24    0.00073120442705488
  25    -0.0012843486263309
  26    0.00071067760915829
  27    -0.00063059340893739
  28    -0.0023921528687204
  29      0.01297505203053
  30     0.015093990250088
  31    0.0024204180989272
  32    0.00082479380470886
  33    -0.00089544942121662
  34    -0.0011409183635577
  35    -0.0072328064018267
  36    -0.0057322575597733
  37     0.012538510843223
  38    0.00046755711400886
  39    0.0011620345860612
  40    -0.00040852635706972
  41    -0.0036700151522521
  42    0.00023465823505778
  43    -0.00051415191194479
  44    0.0010170594865124
  45    -0.00025320596920258
  46    0.0015892061913725
  47    0.0010038635534662
  48    -2.3200422728603e-05
  49    0.00089994019273456
  50    0.0022614096290059
  51    -0.0043135729809841
  52    -0.0027124273227374
  53    0.0011219803599684
  54    -0.0090052549517727
  55    -0.0015520319361408
  56    0.0036647330993793
  57    0.0002576066481187
  58    0.00028436792998887
  59    -0.00028235730861355
  60    -0.00020084233625647
  61    -0.00057767832327337
  62    0.00081195378373728
  63    9.7208217489223e-05
  64    -0.010537744885747
  65    -0.0038370224810112
  66    0.0018360564234307
  67    0.0021773577254516
  68    -0.0073009800462217
  69    -0.0011927763402743
  70    0.0019486519145533
  71    -4.5923935702013e-05
  72    -0.0002983504427295
  73    0.00022466584828347
  74    -0.00068307680020537
  75    -0.00031400820742889
  76     0.050350950284091
  77     0.047769482495009
  78    -0.0020575224812397
  79    -0.0010006038921186
  80    -0.0030095921704004
  81    -0.00093204723434667
  82    -0.0075291276383278
  83    0.0015168777273231
  84      0.54856486880352
  85     -0.37301312578287
  86     0.095997140057738
  87       0.3790389141102
  88     -0.25599779989597
  89     0.068519071182676
  90     0.002441355654605
  91    0.0091775112012815
  92    -0.0041962076979469
  93    0.0086026747812744
  94    0.0048621682031218
 Sym= A
 Ene=               7
 Spin= Alpha
 Occup=    1.00000
   1    0.0008575050005799
   2     0.025667892253088
   3     0.081195513341323
   4     0.048757796144578
   5    -0.0057141881300773
   6    -0.0034637699092108
   7     0.053296762477068
   8     0.014849121576942
   9    0.0031359603588519
  10    1.3388364436007e-05
  11    -0.0021328094505093
  12    -0.0005590788394794
  13    0.0010604865193913
  14    -0.0016802472566125
  15    0.0028121285701626
  16    -0.00023815073241223
  17    -0.037436772245352
  18    0.0024386279307544
  19    0.0017626488703999
  20    0.0031603403211853
  21     0.046160573099936
  22    -0.019536474577932
  23    0.0073721760507859
  24    -0.024084763371241
  25    -0.010843059499308
  26    -0.017868640733528
  27     0.011321927451106
  28    -0.027071793981701
  29      -0.0503509945477
  30     -0.04776954762945
  31    -0.002057510375181
  32    0.0031376089589301
  33    0.00046278753845073
  34    0.00093187800971845
  35    0.0075277384348583
  36    -0.0015185402941428
  37      0.54856500756531
  38    -0.029763998342012
  39      0.38401593012804
  40      0.37903901918734
  41    -0.023023435278477
  42      0.26400679963049
  43    0.0070928119402688
  44    0.0031946443667442
  45    0.0061374372699726
  46    -0.0030981441415463
  47    0.0098823781705369
  48    -0.00081195610940047
  49    -9.7199209610366e-05
  50     0.010537719567097
  51    -0.0038370815342057
  52    -0.0024630282093455
  53    -0.0014300354635931
  54    -0.0073010241845107
  55    -0.0017118435869051
  56    0.0015130623498126
  57    -0.00052806773298841
  58    -0.00025742989974232
  59    -0.00034153372685793
  60    0.00035167896360687
  61    -0.00034834312841975
  62    2.3198508941522e-05
  63    -0.00089992731638292
  64    -0.0022613682111099
  65    -0.0043135625519178
  66    -0.00063390347489969
  67     0.002866027966863
  68    -0.0090052382991224
  69    -0.0033395334271807
  70    0.0021648103194214
  71    -0.00013517105847905
  72    -0.00061828242370304
  73    0.00030728531471248
  74    0.00027152970761441
  75    0.00017973498638391
  76    -0.012975057842225
  77    -0.015093989975299
  78    0.0024204161921255
  79    0.00073862595981954
  80    -0.00096775652639015
  81    0.0011409185520981
  82    0.0072328250375922
  83    0.0057322854510932
  84     0.012538568205838
  85    -0.0012255988298742
  86    -0.000258680130048
  87    -0.00040849182879956
  88    0.0004061916072286
  89    0.0036550092462658
  90    0.0010259741474286
  91    0.00081200281846583
  92    0.0003574163132783
  93    -0.0012937069384024
  94    0.0011759297529939
 Sym= A
 Ene=               8
 Spin= Alpha
 Occup=    1.00000
   1    0.0021244428625685
   2      0.03489044066081
   3     0.080660512112365
   4     0.043625558100946
   5    0.0077751788962083
   6    -0.0017703025877391
   7     0.024684522051039
   8    -0.0091764435126044
   9     0.016554187816542
  10    -0.0011931737863997
  11    -0.001393039233656
  12    0.0011838627205957
  13    0.0014285992355745
  14    0.00039021199215026
  15    0.0029420827697754
  16    0.0036027332414035
  17    -0.014164422516755
  18    0.00070313423431288
  19    0.0003958750288118
  20    -0.00067220100347234
  21     0.035060549805826
  22     0.016429873799884
  23    0.0063875911449775
  24    -0.022739460352865
  25    -0.010735376217723
  26       0.0168477888815
  27     0.012335111485862
  28     0.026413631046103
  29    -0.051075297974073
  30    -0.049385257690319
  31    -0.0016221946480496
  32    -0.0029060210539239
  33    0.0010176683771072