[Molden Format]
made by pyscf v[2.0.1]
[Atoms] (AU)
C   1   6     0.00000000000000     0.00000000000000     0.00000000000000
C   2   6     2.85272299873892     0.00000000000000     0.00000000000000
H   3   1     3.62066923017674     0.00000000000000     1.90331545357504
F   4   9     3.65943188126013    -2.04308229183900    -1.24074875274501
F   5   9     3.65943188126013     2.04308229183900    -1.24074875274501
F   6   9    -0.80670888252121    -0.05297879367154     2.38973554312721
H   7   1    -0.76794623143782     1.64831953421149    -0.95165772678752
F   8   9    -0.80670888252121    -2.09606108551054    -1.14898679038220
[GTO]
1 0
 s    8 1.00
                  6665  0.00069158396281299
                  1000  0.0053257961529341
                   228   0.027060721042034
                 64.71    0.10165684614077
                 21.06     0.2745748236174
                 7.495    0.44829431892377
                 2.797    0.28490261071525
                0.5215   0.015194859206082
 s    8 1.00
                  6665  -0.00029326965268655
                  1000  -0.0023180354739745
                   228  -0.011499786038565
                 64.71  -0.046826727009787
                 21.06   -0.12846616875047
                 7.495   -0.30126627246289
                 2.797   -0.25563070233011
                0.5215      1.093793361012
 s    1 1.00
                0.1596                   1
 p    3 1.00
                 9.439   0.056979251590039
                 2.002    0.31320721150073
                0.5456    0.76037674173753
 p    1 1.00
                0.1517                   1
 d    1 1.00
                  0.55                   1

2 0
 s    8 1.00
                  6665  0.00069158396281299
                  1000  0.0053257961529341
                   228   0.027060721042034
                 64.71    0.10165684614077
                 21.06     0.2745748236174
                 7.495    0.44829431892377
                 2.797    0.28490261071525
                0.5215   0.015194859206082
 s    8 1.00
                  6665  -0.00029326965268655
                  1000  -0.0023180354739745
                   228  -0.011499786038565
                 64.71  -0.046826727009787
                 21.06   -0.12846616875047
                 7.495   -0.30126627246289
                 2.797   -0.25563070233011
                0.5215      1.093793361012
 s    1 1.00
                0.1596                   1
 p    3 1.00
                 9.439   0.056979251590039
                 2.002    0.31320721150073
                0.5456    0.76037674173753
 p    1 1.00
                0.1517                   1
 d    1 1.00
                  0.55                   1

3 0
 s    3 1.00
                 13.01   0.033498726389998
                 1.962    0.23480080117413
                0.4446     0.8136829578829
 s    1 1.00
                 0.122                   1
 p    1 1.00
                 0.727                   1

4 0
 s    8 1.00
                 14710  0.00072067370873197
                  2207  0.0055504869689163
                 502.8   0.028254207662589
                 142.6    0.10639582836653
                 46.47    0.28668420124307
                  16.7    0.44843796582416
                 6.356    0.26464118141135
                 1.316   0.015326060993048
 s    8 1.00
                 14710  -0.00032119389049893
                  2207  -0.0025461915683188
                 502.8  -0.012643359507821
                 142.6   -0.05195749170489
                 46.47   -0.14344713812646
                  16.7   -0.33243762329603
                 6.356   -0.21865906750347
                 1.316     1.0955904138622
 s    1 1.00
                0.3897                   1
 p    3 1.00
                 22.67   0.064834021493887
                 4.977    0.34053535983101
                 1.347    0.73464640679382
 p    1 1.00
                0.3471                   1
 d    1 1.00
                  1.64                   1

5 0
 s    8 1.00
                 14710  0.00072067370873197
                  2207  0.0055504869689163
                 502.8   0.028254207662589
                 142.6    0.10639582836653
                 46.47    0.28668420124307
                  16.7    0.44843796582416
                 6.356    0.26464118141135
                 1.316   0.015326060993048
 s    8 1.00
                 14710  -0.00032119389049893
                  2207  -0.0025461915683188
                 502.8  -0.012643359507821
                 142.6   -0.05195749170489
                 46.47   -0.14344713812646
                  16.7   -0.33243762329603
                 6.356   -0.21865906750347
                 1.316     1.0955904138622
 s    1 1.00
                0.3897                   1
 p    3 1.00
                 22.67   0.064834021493887
                 4.977    0.34053535983101
                 1.347    0.73464640679382
 p    1 1.00
                0.3471                   1
 d    1 1.00
                  1.64                   1

6 0
 s    8 1.00
                 14710  0.00072067370873197
                  2207  0.0055504869689163
                 502.8   0.028254207662589
                 142.6    0.10639582836653
                 46.47    0.28668420124307
                  16.7    0.44843796582416
                 6.356    0.26464118141135
                 1.316   0.015326060993048
 s    8 1.00
                 14710  -0.00032119389049893
                  2207  -0.0025461915683188
                 502.8  -0.012643359507821
                 142.6   -0.05195749170489
                 46.47   -0.14344713812646
                  16.7   -0.33243762329603
                 6.356   -0.21865906750347
                 1.316     1.0955904138622
 s    1 1.00
                0.3897                   1
 p    3 1.00
                 22.67   0.064834021493887
                 4.977    0.34053535983101
                 1.347    0.73464640679382
 p    1 1.00
                0.3471                   1
 d    1 1.00
                  1.64                   1

7 0
 s    3 1.00
                 13.01   0.033498726389998
                 1.962    0.23480080117413
                0.4446     0.8136829578829
 s    1 1.00
                 0.122                   1
 p    1 1.00
                 0.727                   1

8 0
 s    8 1.00
                 14710  0.00072067370873197
                  2207  0.0055504869689163
                 502.8   0.028254207662589
                 142.6    0.10639582836653
                 46.47    0.28668420124307
                  16.7    0.44843796582416
                 6.356    0.26464118141135
                 1.316   0.015326060993048
 s    8 1.00
                 14710  -0.00032119389049893
                  2207  -0.0025461915683188
                 502.8  -0.012643359507821
                 142.6   -0.05195749170489
                 46.47   -0.14344713812646
                  16.7   -0.33243762329603
                 6.356   -0.21865906750347
                 1.316     1.0955904138622
 s    1 1.00
                0.3897                   1
 p    3 1.00
                 22.67   0.064834021493887
                 4.977    0.34053535983101
                 1.347    0.73464640679382
 p    1 1.00
                0.3471                   1
 d    1 1.00
                  1.64                   1

[5d]
[7f]
[9g]

[MO]
 Sym= A
 Ene=               0
 Spin= Alpha
 Occup=    1.00000
   1       1.0019144551945
   2    0.0042352253718756
   3    -0.0074813390501325
   4    -0.00056523225915312
   5    -0.00093795773128768
   6    0.00060527581910407
   7    -0.0015852110323113
   8    -0.0005361767563104
   9    0.00043557646982164
  10    0.0002327906869147
  11    -5.3945641855799e-05
  12    0.00020098082879423
  13    -0.00015088288375108
  14    0.00010025882814928
  15    -0.0002310514510985
  16    3.519391550406e-05
  17    0.0032793749640931
  18    -0.00047192363245613
  19    1.8919022696792e-05
  20    2.321837510087e-06
  21    -0.0016071781049879
  22    0.00012120058671736
  23    -0.00040800778371945
  24    -6.3610581623691e-05
  25    4.2173303652783e-05
  26    -1.0738253022623e-05
  27    5.3894860133868e-05
  28    -0.00010163498535662
  29    -3.0419682303197e-05
  30    0.00041366532152413
  31    -9.703755702277e-05
  32    3.4627020582538e-06
  33    -4.1654296165405e-05
  34    -7.3550654296189e-06
  35    -4.5748823611008e-07
  36    -0.00014855711826241
  37    -2.2136535731071e-05
  38    1.4347990616052e-05
  39    -2.7153713473225e-06
  40    -7.6586341396215e-05
  41    -9.3892175521733e-05
  42    2.6911206789883e-06
  43    -2.0006143575845e-05
  44    -9.523023516936e-06
  45    4.0989259682658e-06
  46    2.9701545581328e-05
  47    -1.4855684159438e-05
  48    1.4423306920644e-05
  49    3.1269668149373e-05
  50    -0.00028027049606426
  51    2.8414332210057e-06
  52    1.2954657724889e-06
  53    -1.1924028026204e-05
  54    5.8543456897334e-06
  55    4.1365678777238e-05
  56    1.7165234704317e-05
  57    -1.4846591803573e-05
  58    -6.7630847794959e-06
  59    -1.5703100727101e-05
  60    1.6450880240016e-05
  61    8.1969874512382e-06
  62    0.00016095190486645
  63    0.00068704174717975
  64    -0.00018160464780768
  65    7.3906292357449e-05
  66    -2.4899635179619e-05
  67    -0.000333057553956
  68    -0.00014952944914588
  69    1.1702481213961e-05
  70    0.00088009348839434
  71    -0.00014975267642202
  72    7.9428751302486e-05
  73    -9.2220971443659e-06
  74    -2.3543669328624e-05
  75    9.2311177774185e-06
  76    0.00095765251796082
  77    0.0015479228047715
  78    0.00021926673957872
  79    -6.8765529329587e-05
  80    2.6446293099537e-05
  81    0.00014276560204335
  82    0.0006504688179791
  83    -5.9451166817785e-05
  84    8.1816868496175e-05
  85    0.00027720018140382
  86    0.00019334464026116
  87    -0.00015486329568238
  88    -0.00071524852053301
  89    -0.00045170675119157
  90    2.4571676475881e-05
  91    -4.4909272339015e-05
  92    -0.00012260919074935
  93    7.1718666159427e-05
  94    -6.0259757954495e-05
 Sym= A
 Ene=               1
 Spin= Alpha
 Occup=    1.00000
   1    -0.00023105054885555
   2    3.5251748877376e-05
   3    0.0032794388853345
   4    0.00047202391933128
   5    1.1476202666955e-05
   6    1.5219546165312e-05
   7    0.0016072159963436
   8    -0.00029273821379113
   9    0.00030897429512476
  10    -1.901072484707e-05
  11    0.00010910061866713
  12    1.8998316771357e-05
  13    7.9657578980702e-05
  14    1.4293914318687e-05
  15       1.0019144574134
  16    0.0042352306356079
  17    -0.0074813401310845
  18    0.00056510164516859
  19    5.5207860145909e-05
  20    -0.0011149947697448
  21    0.0015851840655514
  22    0.00010911602794699
  23    -0.0006821491047584
  24    -8.184586645006e-05
  25    -0.00011380005272207
  26    -8.7808535339381e-06
  27    -0.00033252521871549
  28    -3.4207440248977e-06
  29    0.00095755450143838
  30    0.0015478779525955
  31    -0.00021926579104341
  32    -1.1477708709632e-05
  33    -7.276939529673e-05
  34    0.00014283392098868
  35    0.00065049495144731
  36    -5.9429323713067e-05
  37    -8.1699586953148e-05
  38    0.00030593573927613
  39    0.0001435642573866
  40    0.00015495230916887
  41    -0.0007488883185041
  42    -0.00039344536448881
  43    4.2305564398299e-05
  44    2.9731009952986e-05
  45    -0.00011078762269728
  46    8.1957410506596e-05
  47    6.9023849642918e-05
  48    0.00016098676537288
  49    0.00068702253976664
  50    -0.00018161857093274
  51    -7.3975385556912e-05
  52    -0.0003009313180453
  53    0.00014487548322916
  54    0.00014948623460569
  55    0.00076800169336527
  56    -0.00042996964483476
  57    4.0924735556316e-05
  58    3.1719390463751e-05
  59    0.00011790000879726
  60    8.6546562628897e-05
  61    -7.3400031418648e-05
  62    1.4422992371504e-05
  63    3.1272525220485e-05
  64    -0.00028027727795856
  65    -2.9008004512627e-06
  66    -9.6637859398975e-06
  67    7.0900258309074e-06
  68    -5.9026558004945e-06
  69     3.55580878293e-05
  70    2.7247895105378e-05
  71    2.9477692932667e-06
  72    -1.0480402044332e-05
  73    -3.8402543838021e-06
  74    2.6724405303648e-05
  75    1.7586857449622e-06
  76    -3.0422283386637e-05
  77    0.00041365053534288
  78    9.7041016975157e-05
  79    -3.4342908503646e-05
  80    2.3824995642249e-05
  81    -7.3649056619959e-06
  82    -4.6690270642004e-07
  83    -0.00014857209953723
  84    2.2108719077606e-05
  85    4.7800365926557e-06
  86    1.3844655203914e-05
  87    7.6558412579587e-05
  88    -4.464495736017e-05
  89    -8.2614667865929e-05
  90    -1.9864046022268e-05
  91    8.1047992412772e-06
  92    4.1936263159859e-06
  93    2.9783751189841e-05
  94    1.5675251013802e-05
 Sym= A
 Ene=               2
 Spin= Alpha
 Occup=    1.00000
   1    7.990839124759e-05
   2    0.00010328070815992
   3    -0.0017630871374118
   4    -0.00011381848451165
   5    8.3921132467613e-09
   6    3.0206264822987e-06
   7    -0.00081064008995193
   8    0.00045026923000402
   9    0.00028096255731789
  10    -9.8080044687883e-06
  11    2.6764939297287e-05
  12    4.8592999220009e-05
  13    -5.4137207307126e-05
  14    1.9836830799772e-05
  15    -0.00019772778813807
  16    0.00029774061922539
  17    0.0038838759948077
  18    0.00041261893124702
  19    -0.00086021272640605
  20    -0.00053914468950664
  21    -0.00029425530074901
  22    -0.0012084402734708
  23    -0.001109421724288
  24    -3.4773737422297e-05
  25    -5.4701956075448e-05
  26    8.3068964631073e-05
  27    -5.7995740068034e-05
  28    -5.794830546015e-05
  29    -0.00025675747323945
  30    -9.2010283059986e-05
  31    -3.3184768623198e-06
  32    0.00012983975164703
  33    0.00010126242884142
  34        1.001025216249
  35    0.00060345445370734
  36    -0.0060054591123455
  37    -0.00070640741017742
  38    0.0020542257142091
  39    0.0012804404009231
  40    0.0002664335671456
  41    -0.00048337510184395
  42    -0.00018482404650039
  43    1.0540229158182e-05
  44    4.1900674603141e-05
  45    -7.9388413797008e-05
  46    7.2049976189753e-05
  47    6.1567640035084e-05
  48      0.00010255184314
  49    0.00017107560695276
  50    -0.00073715548612268
  51    1.2775482457858e-06
  52    3.9921932201922e-05
  53    -4.1922504615725e-05
  54    5.2352898496422e-05
  55    0.00043067439243511
  56    0.00013045767020145
  57    1.7373259170122e-05
  58    -1.110170619082e-05
  59    3.6513032620878e-06
  60    1.7239035470842e-05
  61    -1.2593662283388e-05
  62    -1.3860439904403e-05
  63    -1.9248881332526e-05
  64    0.00013571752776742
  65    9.8138878620266e-07
  66    4.3220972007799e-06
  67    -1.60200062216e-05
  68    0.00011944194278065
  69    -5.1243517860412e-05
  70    -5.2051089120366e-05
  71    8.6366599883959e-06
  72    -4.9996144983686e-06
  73    1.3299157151615e-05
  74    -2.8557271394101e-06
  75    1.7282943912685e-06
  76    0.00010990905533615
  77    -7.4703664896426e-05
  78    2.9284920685685e-05
  79    -4.4340917545307e-05
  80    -4.3080005830041e-05
  81    -6.5141335831381e-05
  82    -0.00013021978639443
  83    0.00039113995859785
  84    -2.7774122480871e-05
  85    -2.987544362451e-05
  86    -1.4203215900358e-05
  87    6.6723854167396e-05
  88    8.2465783668788e-05
  89    4.3034701955587e-05
  90    9.7953084445544e-06
  91    1.7330724985058e-06
  92    -8.1786419316117e-06
  93    -9.625915212737e-06
  94    -1.0115071263178e-06
 Sym= A
 Ene=               3
 Spin= Alpha
 Occup=    1.00000
   1    -0.00019888249758099
   2    0.00028972416313596
   3    0.0038835494003191
   4    -0.00040920374862858
   5    -0.00088813944891941
   6    -0.00047043361396662
   7    0.00029576058527585
   8    -0.0015653497241065
   9    -0.00049009686000821
  10    -2.0281832595662e-05
  11    2.2093753465728e-05
  12    9.2209746850452e-05
  13    -5.0217758012158e-05
  14    7.5456431278789e-05
  15    7.9807632177286e-05
  16    0.00010234153513882
  17    -0.0017645625371832
  18    0.00011520131515369
  19    3.380836234693e-06
  20    -1.1096301145644e-06
  21    0.0008119609683272
  22    0.00046879526724068
  23    0.00024897480625654
  24    -4.2646280873275e-08
  25    -4.0689743915352e-06
  26    5.5161044137746e-05
  27    -4.8688744810454e-05
  28    -3.3684864195945e-05
  29    0.00011010637099772
  30    -7.4697871708271e-05
  31    -2.9268583868011e-05
  32    -5.9454695695028e-05
  33    -1.6924690783894e-05
  34    -6.520118875547e-05
  35    -0.00013055089747896
  36    0.00039102319696441
  37    2.8552353981446e-05
  38    -2.6805305882816e-05
  39    -1.8642342127136e-05
  40    -6.6678884146788e-05
  41    7.8378573495189e-05
  42    4.9915749087224e-05
  43    1.1133893884351e-05
  44    1.771562879881e-06
  45    -7.2929525348636e-06
  46    -8.7692331823814e-06
  47    -9.2147600938416e-07
  48    -1.3863697133961e-05
  49    -1.929447702881e-05
  50    0.0001353939045187
  51    -8.9139742353726e-07
  52    -1.1783881630015e-05
  53    1.1742632733847e-05
  54    -0.00011951312982483
  55    -7.0734872662739e-05
  56    -1.828060379467e-05
  57    -9.1974223651036e-06
  58    -4.0025972247259e-06
  59    1.3894421330927e-06
  60    -1.314994149594e-05
  61    3.4560439334973e-06
  62    0.0001026523260802
  63    0.00017129745740514
  64    -0.00073781262205239
  65    -1.3188095796995e-06
  66    -1.6340729512258e-05
  67    5.5071566697728e-05
  68    -5.2629063289601e-05
  69    0.00032815494804678
  70    0.00030745464993569
  71    -1.6218022708795e-05
  72    5.3358421755911e-06
  73    -1.8792413696532e-05
  74    -2.1056130979528e-06
  75    1.5949328059333e-05
  76    -0.00025538013174966
  77    -8.8579642590156e-05
  78    3.4498692666241e-06
  79    0.00015287125285292
  80    6.1902465701771e-05
  81       1.0010252308633
  82    0.00064885539318796
  83    -0.0059516359622539
  84    0.00071157917404353
  85    0.0020986795442821
  86    0.0011310285876126
  87    -0.00026264698523119
  88    -0.00042677572455235
  89    -0.00033123017303055
  90    1.1731151659171e-05
  91    -3.2379330111329e-05
  92    -7.9357446227222e-05
  93    7.330625357284e-05
  94    -6.7277684649948e-05
 Sym= A
 Ene=               4
 Spin= Alpha
 Occup=    1.00000
   1    8.984904564582e-05
   2    0.00013155971030373
   3    -0.0016463966138447
   4    -0.00013741486757347
   5    3.4983843534946e-05
   6    -2.4741992950861e-05
   7    -0.00065679205821509
   8    -0.00026868668034783
   9    0.00031718211653108
  10    -1.1472968547944e-05
  11    3.4985526855706e-05
  12    -7.3944195267302e-05
  13    -6.9603616042718e-05
  14    -3.5011967002822e-05
  15    -0.00019013192158851
  16    0.00025317920406425
  17    0.0036226856985029
  18    0.00037942324203762
  19    0.00077324846331259
  20    -0.00048323460635568
  21    -0.0002084107079313
  22    0.0011510347632288
  23    -0.0011007395000802
  24    -2.9539541141281e-05
  25    -4.9062102023501e-05
  26    -8.6973141999778e-05
  27    -6.3136992540599e-05
  28    6.3076179754958e-05
  29    -0.00023757649949426
  30    -7.9215699269299e-05
  31    -6.002760077028e-06
  32    -0.00012879415428581
  33    0.00010321343233712
  34    0.00010077137209795
  35    0.00016945322613623
  36    -0.00071589682773645
  37    5.6829473996979e-07
  38    -3.4328834252043e-05
  39    -4.1070728821188e-05
  40    4.5039814822659e-05
  41    -0.00041289970314846
  42    0.00013614966470783
  43    1.8140891061337e-05
  44    -1.2030119396065e-05
  45    -3.0342587409705e-06
  46    1.6769070562398e-05
  47    1.199316109984e-05
  48       1.0010222885364
  49    0.0010055183241364
  50    -0.0054904841024102
  51    -0.00067163564071993
  52    -0.0017927694205736
  53    0.0010913251302893
  54    0.00030765903565702
  55    0.00061040675487222
  56    -0.00029316070138925
  57    1.217725664163e-05
  58    4.2195832792739e-05
  59    8.533852942174e-05
  60    7.4690664789244e-05
  61    -5.9928015866994e-05
  62    -9.2819056304272e-06
  63    -1.1341793155879e-05
  64    0.00010082377334543
  65    8.2761455764084e-07
  66    5.2270482748804e-06
  67    -1.4179461533616e-05
  68    0.00010245858819605
  69    8.1405194115696e-06
  70    -4.8683651049781e-05
  71    8.9819071732168e-06
  72    -2.46711572828e-06
  73    -1.1709370547037e-05
  74    -2.0951503835325e-06
  75    -1.746335785936e-06
  76    8.0769608690438e-05
  77    0.00012547493207054
  78    -3.2519548522649e-05
  79    -4.7207600282585e-07
  80    -1.6604075853022e-05
  81    -1.4236096949898e-05
  82    -2.2395813216344e-05
  83    0.00015892583585588
  84    9.5939750471483e-06
  85    7.6403611542587e-06
  86    5.8538370891965e-06
  87    5.0058560970002e-05
  88    7.0667263964069e-05
  89    -4.1283883911068e-07
  90    -6.9090989713282e-06
  91    3.2033083978553e-06
  92    -4.6056539909834e-06
  93    -1.5462810158213e-05
  94    2.9935842944633e-07
 Sym= A
 Ene=               5
 Spin= Alpha
 Occup=    1.00000
   1    -0.00018421905141422
   2    0.00029991255217264
   3    0.0036363658347345
   4    -0.00040016617414472
   5    -3.2762033953186e-05
   6    0.00097499871412927
   7    0.00021335057952199
   8    -0.00037176590049443
   9    0.0015458982993713
  10    0.00011520160860354
  11    -7.9105572357356e-05
  12    5.0640704595608e-06
  13    1.7172525123351e-05
  14    1.0684969791242e-05
  15    8.9494146530151e-05
  16    0.0001287768065147
  17    -0.0016506327924757
  18    0.00014209222265438
  19    -4.1699736280756e-06
  20    4.7425702980893e-05
  21    0.00066761465771428
  22    0.0001376691279707
  23    -0.00037986271954473
  24    0.00010189047611205
  25    4.5120273662485e-05
  26    1.8572732723326e-06
  27    -3.8143626009726e-06
  28    -1.2434152301313e-05
  29    8.0570733680143e-05
  30    0.0001128042896386
  31    3.2747786516435e-05
  32    -1.449078149175e-05
  33    8.1251467581816e-06
  34    -1.4235272354902e-05
  35    -2.185510627461e-05
  36    0.00016092902780595
  37    -1.1096446054763e-05
  38    9.9341831063297e-06
  39    3.6639999859934e-06
  40    -5.267351466586e-05
  41    3.6304237612043e-05
  42    6.0013694979953e-05
  43    1.4422774093377e-05
  44    1.3810241123882e-06
  45    9.546807553458e-06
  46    -3.2498234201497e-06
  47    -2.7841153425847e-06
  48    -9.3703269244806e-06
  49    -1.0787703533174e-05
  50    0.00010469585523263
  51    -2.6479732867175e-06
  52    -1.0719479755589e-05
  53    1.1592053171953e-05
  54    -0.00010481087462903
  55    -3.9307489483269e-05
  56    3.0519105858982e-05
  57    9.0984491365026e-06
  58    3.1765765602893e-07
  59    -1.1640143388949e-05
  60    -2.1486746050191e-06
  61    2.8706273303339e-06
  62       1.0010222417307
  63    0.00074215613739821
  64    -0.0058002522641468
  65    0.00078059453627816
  66    5.4022290546835e-05
  67    -0.0022737850100882
  68    -0.00023443410184998
  69    5.4308424128375e-05
  70    0.00055781885920652
  71    -0.00010991288724658
  72    6.9147575366485e-05
  73    8.5926667360661e-07
  74    2.6320613612408e-06
  75    -6.4237042279348e-06
  76    -0.00023526106252776
  77    -8.7974320013929e-05
  78    4.7318511362183e-06
  79    2.4910552816378e-05
  80    -0.00016067454278639
  81    0.00010040379339319
  82    0.00016850999138847
  83    -0.00071396997722949
  84    -1.0354933741765e-06
  85    -5.3727500971438e-05
  86    -1.030338194468e-05
  87    -4.4873279682228e-05
  88    -8.9210402304554e-05
  89    -0.00042673098681964
  90    -1.0378657405411e-05
  91    -1.614604248199e-05
  92    -2.1546826119506e-05
  93    -1.3063511313387e-07
  94    4.1749668191867e-06
 Sym= A
 Ene=               6
 Spin= Alpha
 Occup=    1.00000
   1    -0.00089748063174621
   2     -0.01566624233583
   3    -0.027824095934838
   4     0.015003027584892
   5     0.031214689709598
   6      0.01596714912627
   7    0.0088035673303286
   8     0.042255801140172
   9     0.022376457715408
  10     0.009803422930498
  11     0.015496057842796
  12     0.035925785030069
  13    -0.0084819408839575
  14    -0.0073099094432783
  15    -0.001598403136793
  16    -0.018082870016054
  17    -0.020962186879221
  18     0.017392427893362
  19    0.0005622156454894
  20    -0.0055497391951483
  21    -0.0049556927254897
  22    0.0035001010772032
  23     -0.00509652994195
  24    0.00026570229923628
  25    1.3345027089619e-05
  26    0.00044082101403465
  27    -0.0003247221184362
  28    -0.00046703010570253
  29    -0.0089997281620548
  30       0.0128305971137
  31    -0.0017595668921146
  32    0.00088209451887957
  33    0.0015687764733371
  34    -0.00097386295183119
  35    0.0012116220294284
  36     0.012700053202086
  37    -0.0053712052572769
  38    0.0055504535203191
  39    0.0047360329841524
  40    -0.0076143389582848
  41    0.0059899567921498
  42    0.0051456420989431
  43    -0.00011280533655181
  44    -1.9431239010506e-05
  45    0.00016711534262237
  46    -0.00020817146902189
  47    3.0560967878924e-05
  48    0.00088554606466966
  49    0.0032300532470837
  50    8.3180717173337e-05
  51    -0.0030748350602153
  52    -0.002930145310738
  53    -0.00021977551561574
  54    0.0013509169254012
  55    -0.0032837693976548
  56    -0.00051731387003539
  57    7.1537015434434e-05
  58    0.00015744418617318
  59    5.0418347075349e-05
  60    -0.00041606930704856
  61    -0.00037101232886344
  62    -0.00053056464060638
  63    -0.00041984156159575
  64     0.002077106020503
  65       0.2986959053226
  66       0.5804537227759
  67      0.11546812320177
  68      0.20813921174257
  69      0.40169203359251
  70     0.078262816173847
  71    -0.0045764051512885
  72    -0.0053783424870866
  73    -0.011911669165256
  74    0.0017844370561229
  75    0.0053363689605232
  76    -0.025268061917412
  77    -0.018968806941877
  78    0.00061461889109629
  79    -0.000755119344491
  80    -0.0013582110504894
  81    -0.001909858042783
  82      0.01355974649796
  83     0.051752736712388
  84    0.0062330480145904
  85     0.032286818182743
  86     0.033242937939453
  87    0.0069366065261987
  88     0.030018781317441
  89      0.03140076989017
  90    -0.0004186589259593
  91    0.00066539976268652
  92    0.00053861938777679
  93    4.5021141631731e-05
  94    -0.00026790444696979
 Sym= A
 Ene=               7
 Spin= Alpha
 Occup=    1.00000
   1    0.00089230990435251
   2     0.026793151508701
   3     0.083612800837433
   4     0.048394474112318
   5    -0.0041399614503011
   6    -0.0014134635226714
   7     0.053111573722867
   8     0.015001869830667
   9    0.0070994289195794
  10    -0.00061845057736423
  11    -0.0014395221413111
  12    -0.00070082090599303
  13    0.00088127070690762
  14    -0.0020504477623588
  15    0.0030313526751327
  16    0.00022159166098674
  17    -0.038698933184616
  18    0.0025944522404211
  19    0.0017621270282075
  20    0.0025764604889168
  21     0.047823918003027
  22     -0.01965492204241
  23    0.0086247431242759
  24    -0.023827977951521
  25    -0.010816741415577
  26    -0.017649553791586
  27     0.011606503197346
  28    -0.027249547614811
  29    -0.050752345220259
  30    -0.049490093542053
  31    -0.0020159555934034
  32    0.0031493193458334
  33    0.00066567053459371
  34    0.00089026965131101
  35    0.0077734981234251
  36    -0.00089923247547765
  37      0.55188021068554
  38     -0.02428850006261
  39      0.37889633941544
  40      0.38111780780791
  41    -0.019448801042278
  42      0.26096710775204
  43    0.0068857607755328
  44    0.0031133216979347
  45    0.0061633592687327
  46    -0.0032246573639179
  47    0.0099902811556891
  48    -0.00094722353025591
  49    -0.00043954148436925
  50     0.011333287480229
  51    -0.0037725850315524
  52    -0.0021632225423686
  53    -0.0015940053909434
  54    -0.0077822456763851
  55    -0.0019021449075055
  56    0.0012513851384897
  57    -0.00054219950978071
  58    -0.00028029280475536
  59    -0.00034071940669833
  60    0.00033178201349142
  61    -0.000350534913694
  62    0.00058429481494829
  63    -0.00065393529280821
  64    -0.008096479283298
  65    -0.0051778691096206
  66    -0.00010970836734667
  67    0.0051871445691505
  68    -0.0093809675577538
  69    -0.0028157152166304
  70     0.006068115407706
  71    -0.00039293035258802
  72    -0.00065787608801566
  73    0.00018570744481405
  74    0.00016602634234952
  75    -1.2535554159891e-05
  76    -0.0088476436678218
  77    -0.012837933290059
  78    0.0024083052856891
  79    -5.8423452897058e-05
  80    -0.0014839652178101
  81    0.00076711604539783
  82    0.0063865770976087
  83    0.0079955953076993
  84     0.011795568711787
  85    0.0013251503337347
  86    -0.003740876645243
  87    0.0004581315509907
  88    0.0032836814955214
  89    0.00046337657404795
  90    0.00057747810304117
  91    0.00099425762737301
  92    0.00031615313388756
  93    -0.0014644417874082
  94    0.0010301551178135
 Sym= A
 Ene=               8
 Spin= Alpha
 Occup=    1.00000
   1    0.0012283053180045
   2      0.03426115891099
   3     0.089482390365855
   4     0.042686764928763
   5    0.0090551041174664
   6    -0.0060897366187748
   7     0.019973515684099
   8    -0.0038484570693037
   9    0.0056825442756451
  10    -0.00045255886340209
  11    -0.0014220908142818
  12    0.0007687545643682
  13    0.0013212137798677
  14    0.00069523057412247
  15    0.0030220141020626
  16    0.0039542962394924
  17      -0.0130752345252
  18    0.0010196302428393
  19    0.00089324068685071
  20    -0.0010943470631353
  21     0.033485860669533
  22     0.015115395481052
  23    0.0082778169291584
  24    -0.022741972748524
  25    -0.010639325021003
  26     0.016739147796437
  27     0.012434311033766
  28     0.026470779841984
  29    -0.050693360927766
  30    -0.048119426943092
  31    -0.001682232316714
  32    -0.0028216251022346
  33    0.00090123216365859