[Molden Format]
made by pyscf v[2.0.1]
[Atoms] (AU)
C   1   6     0.00000000000000     0.00000000000000     0.00000000000000
C   2   6     2.85272299873892     0.00000000000000     0.00000000000000
H   3   1     3.62066923017674     0.00000000000000     1.90331545357504
F   4   9     3.65943188126013    -2.04308229183900    -1.24074875274501
F   5   9     3.65943188126013     2.04308229183900    -1.24074875274501
F   6   9    -0.80670888252121     2.04308229183900     1.24074875274501
H   7   1    -0.76794623143782     0.00000000000000    -1.90331545357504
F   8   9    -0.80670888252121    -2.04308229183900     1.24074875274501
[GTO]
1 0
 s    8 1.00
                  6665  0.00069158396281299
                  1000  0.0053257961529341
                   228   0.027060721042034
                 64.71    0.10165684614077
                 21.06     0.2745748236174
                 7.495    0.44829431892377
                 2.797    0.28490261071525
                0.5215   0.015194859206082
 s    8 1.00
                  6665  -0.00029326965268655
                  1000  -0.0023180354739745
                   228  -0.011499786038565
                 64.71  -0.046826727009787
                 21.06   -0.12846616875047
                 7.495   -0.30126627246289
                 2.797   -0.25563070233011
                0.5215      1.093793361012
 s    1 1.00
                0.1596                   1
 p    3 1.00
                 9.439   0.056979251590039
                 2.002    0.31320721150073
                0.5456    0.76037674173753
 p    1 1.00
                0.1517                   1
 d    1 1.00
                  0.55                   1

2 0
 s    8 1.00
                  6665  0.00069158396281299
                  1000  0.0053257961529341
                   228   0.027060721042034
                 64.71    0.10165684614077
                 21.06     0.2745748236174
                 7.495    0.44829431892377
                 2.797    0.28490261071525
                0.5215   0.015194859206082
 s    8 1.00
                  6665  -0.00029326965268655
                  1000  -0.0023180354739745
                   228  -0.011499786038565
                 64.71  -0.046826727009787
                 21.06   -0.12846616875047
                 7.495   -0.30126627246289
                 2.797   -0.25563070233011
                0.5215      1.093793361012
 s    1 1.00
                0.1596                   1
 p    3 1.00
                 9.439   0.056979251590039
                 2.002    0.31320721150073
                0.5456    0.76037674173753
 p    1 1.00
                0.1517                   1
 d    1 1.00
                  0.55                   1

3 0
 s    3 1.00
                 13.01   0.033498726389998
                 1.962    0.23480080117413
                0.4446     0.8136829578829
 s    1 1.00
                 0.122                   1
 p    1 1.00
                 0.727                   1

4 0
 s    8 1.00
                 14710  0.00072067370873197
                  2207  0.0055504869689163
                 502.8   0.028254207662589
                 142.6    0.10639582836653
                 46.47    0.28668420124307
                  16.7    0.44843796582416
                 6.356    0.26464118141135
                 1.316   0.015326060993048
 s    8 1.00
                 14710  -0.00032119389049893
                  2207  -0.0025461915683188
                 502.8  -0.012643359507821
                 142.6   -0.05195749170489
                 46.47   -0.14344713812646
                  16.7   -0.33243762329603
                 6.356   -0.21865906750347
                 1.316     1.0955904138622
 s    1 1.00
                0.3897                   1
 p    3 1.00
                 22.67   0.064834021493887
                 4.977    0.34053535983101
                 1.347    0.73464640679382
 p    1 1.00
                0.3471                   1
 d    1 1.00
                  1.64                   1

5 0
 s    8 1.00
                 14710  0.00072067370873197
                  2207  0.0055504869689163
                 502.8   0.028254207662589
                 142.6    0.10639582836653
                 46.47    0.28668420124307
                  16.7    0.44843796582416
                 6.356    0.26464118141135
                 1.316   0.015326060993048
 s    8 1.00
                 14710  -0.00032119389049893
                  2207  -0.0025461915683188
                 502.8  -0.012643359507821
                 142.6   -0.05195749170489
                 46.47   -0.14344713812646
                  16.7   -0.33243762329603
                 6.356   -0.21865906750347
                 1.316     1.0955904138622
 s    1 1.00
                0.3897                   1
 p    3 1.00
                 22.67   0.064834021493887
                 4.977    0.34053535983101
                 1.347    0.73464640679382
 p    1 1.00
                0.3471                   1
 d    1 1.00
                  1.64                   1

6 0
 s    8 1.00
                 14710  0.00072067370873197
                  2207  0.0055504869689163
                 502.8   0.028254207662589
                 142.6    0.10639582836653
                 46.47    0.28668420124307
                  16.7    0.44843796582416
                 6.356    0.26464118141135
                 1.316   0.015326060993048
 s    8 1.00
                 14710  -0.00032119389049893
                  2207  -0.0025461915683188
                 502.8  -0.012643359507821
                 142.6   -0.05195749170489
                 46.47   -0.14344713812646
                  16.7   -0.33243762329603
                 6.356   -0.21865906750347
                 1.316     1.0955904138622
 s    1 1.00
                0.3897                   1
 p    3 1.00
                 22.67   0.064834021493887
                 4.977    0.34053535983101
                 1.347    0.73464640679382
 p    1 1.00
                0.3471                   1
 d    1 1.00
                  1.64                   1

7 0
 s    3 1.00
                 13.01   0.033498726389998
                 1.962    0.23480080117413
                0.4446     0.8136829578829
 s    1 1.00
                 0.122                   1
 p    1 1.00
                 0.727                   1

8 0
 s    8 1.00
                 14710  0.00072067370873197
                  2207  0.0055504869689163
                 502.8   0.028254207662589
                 142.6    0.10639582836653
                 46.47    0.28668420124307
                  16.7    0.44843796582416
                 6.356    0.26464118141135
                 1.316   0.015326060993048
 s    8 1.00
                 14710  -0.00032119389049893
                  2207  -0.0025461915683188
                 502.8  -0.012643359507821
                 142.6   -0.05195749170489
                 46.47   -0.14344713812646
                  16.7   -0.33243762329603
                 6.356   -0.21865906750347
                 1.316     1.0955904138622
 s    1 1.00
                0.3897                   1
 p    3 1.00
                 22.67   0.064834021493887
                 4.977    0.34053535983101
                 1.347    0.73464640679382
 p    1 1.00
                0.3471                   1
 d    1 1.00
                  1.64                   1

[5d]
[7f]
[9g]

[MO]
 Sym= A
 Ene=               0
 Spin= Alpha
 Occup=    1.00000
   1    -0.0002092544778283
   2    7.8027368189106e-05
   3     0.003167823265037
   4    0.00047622994585599
   5    8.0220228853929e-10
   6    -9.1606041345479e-06
   7    0.0015378581617885
   8    4.931802637212e-10
   9    0.00044342597346276
  10    -4.0532007143342e-05
  11    9.5406609436259e-05
  12    -4.3768685104974e-11
  13    8.392473673976e-05
  14    -3.8656868056909e-11
  15       1.0019103495584
  16    0.0042192453174581
  17    -0.0073947122320917
  18    0.00059150112420639
  19    -8.0890712553262e-10
  20    -0.0011213018175075
  21    0.0015864262254735
  22    -1.6737097618654e-10
  23    -0.00074316908116055
  24    -8.3188559896355e-05
  25    -0.00011498960327475
  26    7.9195861885224e-11
  27    -0.00033447300887341
  28    -3.5065329487123e-10
  29    0.00097209527388957
  30    0.0015387458942698
  31    -0.00022315308535196
  32    -4.2455597922772e-12
  33    -6.6129026044251e-05
  34    0.00015384907390405
  35    0.00067288835818036
  36    -0.00014268564595382
  37    -7.2843248082812e-05
  38    0.00030681974963398
  39    0.0001422482607979
  40    0.00013239890818221
  41    -0.00078007484559052
  42    -0.00040332097704195
  43    4.1303041763841e-05
  44    2.9648608748907e-05
  45    -0.00011475401358015
  46    8.706654510811e-05
  47    7.0710733997649e-05
  48    0.00015384894459018
  49    0.00067288738176478
  50    -0.00014268633609034
  51    -7.2847561485588e-05
  52    -0.00030681725700178
  53    0.00014224549375916
  54    0.00013239582582449
  55    0.00078007647686491
  56    -0.00040332278974589
  57    4.1303007315925e-05
  58    2.9648591041477e-05
  59    0.00011475410806479
  60    8.7066631890394e-05
  61    -7.0710696757031e-05
  62    -5.0497486217866e-06
  63    -5.5473537528605e-07
  64    -0.00016695766072961
  65    2.7894245639443e-06
  66    -1.1182281113576e-05
  67    8.3443134038202e-06
  68    8.2589994209153e-05
  69    9.1576614573121e-05
  70    -3.9659720560703e-05
  71    -1.8167577514165e-05
  72    -1.2316823182349e-05
  73    1.3567780827392e-05
  74    2.3690241741091e-05
  75    -1.0437346179704e-05
  76    -5.0616630384953e-05
  77    0.00043879538213343
  78    9.826939277003e-05
  79    2.5617205120102e-12
  80    2.0819238488972e-05
  81    -5.0499439057527e-06
  82    -5.5329698467967e-07
  83    -0.00016695545517994
  84    2.7876475557241e-06
  85    1.1183376602667e-05
  86    8.3480601794527e-06
  87    8.2588797479483e-05
  88    -9.1575718378159e-05
  89    -3.9657229857809e-05
  90    -1.8167631836706e-05
  91    -1.2316755730291e-05
  92    -1.3567720681814e-05
  93    2.3690205822266e-05
  94    1.043731632514e-05
 Sym= A
 Ene=               1
 Spin= Alpha
 Occup=    1.00000
   1       1.0019103496335
   2    0.0042192450593956
   3    -0.0073947123741028
   4    -0.00059149768045674
   5    -7.8113231613822e-10
   6    0.0011213054875397
   7    -0.0015864250222766
   8    -1.5449640452973e-10
   9    0.00074317022138443
  10    -8.3188642484437e-05
  11    -0.00011498972047574
  12    -7.0663433693921e-11
  13    -0.00033447298764796
  14    2.6282216034518e-10
  15    -0.00020925786237163
  16     7.80279205317e-05
  17    0.0031678237632895
  18    -0.00047623241990683
  19    1.0843919593826e-09
  20    9.1600673304266e-06
  21    -0.001537858736686
  22    3.6436671016739e-10
  23    -0.00044342615799053
  24    -4.053217090196e-05
  25    9.5406414015336e-05
  26    -9.1693224886557e-11
  27    8.3924926015013e-05
  28    3.6312358795756e-11
  29    -5.0617894776499e-05
  30    0.00043879455586319
  31    -9.8269424124173e-05
  32    2.1356113553313e-11
  33    -2.0819175752462e-05
  34    -5.049921067431e-06
  35    -5.5346089859417e-07
  36    -0.00016695567935154
  37    -2.7861027126707e-06
  38    1.118278798975e-05
  39    -8.3475228994305e-06
  40    -8.2587619822959e-05
  41    -9.1576118934423e-05
  42    3.9657625552671e-05
  43    -1.8167627326508e-05
  44    -1.2316760448451e-05
  45     1.35677039481e-05
  46    2.3690220974529e-05
  47    -1.0437304947261e-05
  48    -5.0498533637726e-06
  49    -5.5388763822227e-07
  50    -0.0001669566854818
  51    -2.7887972855575e-06
  52    -1.1182699443505e-05
  53    -8.3448899206206e-06
  54    -8.2589437823679e-05
  55    9.1576327856546e-05
  56    3.9659335772861e-05
  57    -1.8167599747277e-05
  58    -1.2316830693343e-05
  59    -1.3567768817047e-05
  60    2.369024107996e-05
  61    1.0437365109758e-05
  62    0.00015384944875733
  63    0.00067288734091285
  64    -0.00014268650847534
  65    7.2848176220246e-05
  66    -0.0003068188577552
  67    -0.00014224425719776
  68    -0.00013239562286054
  69    0.00078007543022951
  70     0.000403323504845
  71    4.1302927230943e-05
  72    2.9648579350178e-05
  73    -0.00011475414356261
  74    8.7066616976823e-05
  75    7.0710621997131e-05
  76    0.00097209152608154
  77    0.0015387447070472
  78    0.00022315297301129
  79    -3.2818598082987e-12
  80    6.6128754610883e-05
  81    0.00015384923182657
  82    0.00067288870667162
  83    -0.00014268532143157
  84    7.2845884302799e-05
  85    0.00030681985592723
  86    -0.00014224720461063
  87    -0.00013239729386374
  88    -0.00078007484470929
  89    0.00040332154917769
  90    4.1302969088536e-05
  91    2.9648571895592e-05
  92    0.00011475406102765
  93    8.7066570085827e-05
  94    -7.0710636537117e-05
 Sym= A
 Ene=               2
 Spin= Alpha
 Occup=    1.00000
   1    4.3728345599552e-05
   2    4.7406843533204e-05
   3    -0.0012536473414079
   4    -0.00014291757326145
   5    2.3661306462518e-05
   6    -1.7032520121687e-05
   7    -0.00067850072509836
   8    -0.00016824516141549
   9    0.00022476728500135
  10    2.1506543888264e-05
  11    1.9171176859157e-05
  12    -3.1321786330139e-05
  13    -8.2407496787254e-05
  14    -1.6507065926579e-06
  15    -0.00016709159293398
  16    0.00036974287830874
  17    0.0035135030292489
  18     0.000425029192587
  19    0.00088336838252948
  20    -0.00055306861338353
  21    -0.00017819005490382
  22    0.0012177824169305
  23    -0.0010806601629898
  24    -3.276749503446e-05
  25    -6.1609835984516e-05
  26    -0.00010456666655068
  27    -5.9247959350832e-05
  28    8.5116445861567e-05
  29    -0.00022513277987195
  30    -7.3416112542728e-05
  31    -8.6460727043745e-06
  32    -0.00013657912903435
  33    9.2074798715083e-05
  34    8.6046162257036e-05
  35    0.00013976340847005
  36    -0.00063092159943256
  37    4.5561725673174e-06
  38    -3.9911496536782e-05
  39    -4.3209371789054e-05
  40    2.5966645235834e-05
  41    -0.00040438645505033
  42    0.00014818012777399
  43    1.7750361112854e-05
  44    -1.2202468117977e-05
  45    -1.0672255574944e-06
  46    1.4514614178528e-05
  47    1.0941938505809e-05
  48        1.001026933265
  49    0.00047051087668849
  50    -0.0061618141193837
  51    -0.00082736772455486
  52    -0.0021369500700072
  53    0.0012873062990061
  54    0.00021882118351468
  55    0.00040364804237986
  56    -0.00018251982547475
  57    1.2106555674391e-05
  58    4.0314482751605e-05
  59    8.1538894585386e-05
  60    6.6653967055317e-05
  61    -5.6544659225616e-05
  62    2.6366378969124e-05
  63    5.2440660353893e-05
  64    -4.430501123321e-05
  65    1.9640394776611e-05
  66    -1.4925527851487e-06
  67    1.5682770306323e-05
  68    -7.266394840853e-05
  69    -6.76119919923e-06
  70    -2.421460612549e-05
  71    8.2156485580389e-06
  72    1.1277556313827e-05
  73    -2.101266279033e-06
  74    -1.7589738581065e-05
  75    5.8653225171888e-07
  76    8.5273128589988e-05
  77    -9.6268931921817e-05
  78    -5.9105646734831e-05
  79    -1.2721728734302e-05
  80    -6.8703391893004e-06
  81    -2.5513773586425e-05
  82    -4.5045671363989e-05
  83    0.00011599231775582
  84    -2.1481437137911e-05
  85    1.0431905753569e-05
  86    3.9929382110438e-07
  87    0.00018021400632581
  88    1.1006297447986e-05
  89    -2.6002682530178e-05
  90    1.2213501913299e-06
  91    3.3936891849713e-06
  92    1.3871425817344e-06
  93    2.8717686675387e-06
  94    -2.5112222871282e-06
 Sym= A
 Ene=               3
 Spin= Alpha
 Occup=    1.00000
   1    -0.00016796980833699
   2    0.00036287202612603
   3    0.0035114418285589
   4    -0.00042197520824151
   5    -0.00087567656346141
   6    0.00054825293469792
   7    0.00017776694725336
   8    -0.0012174018571977
   9    0.0010813732246795
  10    -3.2793035332939e-05
  11    -6.1492257386389e-05
  12    -0.0001039664187803
  13    -5.9045859170469e-05
  14    8.4916124713163e-05
  15    4.3653820160953e-05
  16    4.7355734863806e-05
  17    -0.0012525905157133
  18     0.000142687157318
  19    -2.3159892766051e-05
  20    1.6614568964673e-05
  21    0.00067745118494534
  22    0.00016821816897474
  23    -0.00022592556531688
  24    2.1561708487437e-05
  25    1.9402439516131e-05
  26    -3.1271744186189e-05
  27    -8.2513734897124e-05
  28    -1.9882967755644e-06
  29    8.5203854305502e-05
  30    -9.53496787773e-05
  31    5.9115682293858e-05
  32    1.2759910316181e-05
  33    6.8640617394283e-06
  34    2.6416105363883e-05
  35    5.2506603844195e-05
  36    -4.4783316342532e-05
  37    -1.955967015105e-05
  38    1.5780821979487e-06
  39    -1.5643175933529e-05
  40    7.2857496396218e-05
  41    6.5936749139114e-06
  42    2.4346451983087e-05
  43    8.213094651273e-06
  44    1.1285002810187e-05
  45    -2.1113155721943e-06
  46    -1.7590631955163e-05
  47    5.8368019789935e-07
  48    -2.5534574605034e-05
  49    -4.5171224005446e-05
  50    0.00011565565399417
  51    2.1761241280171e-05
  52    -1.0275665900596e-05
  53    -4.6038086638967e-07
  54    -0.00017997084468288
  55    -1.0831798179675e-05
  56    2.6104575328881e-05
  57    1.2133865015355e-06
  58    3.3846820549302e-06
  59    1.3754149168626e-06
  60    2.881615020076e-06
  61    -2.4960015663232e-06
  62    8.6089736467603e-05
  63    0.00013999576645279
  64    -0.00063093204870481
  65    -4.4656272167404e-06
  66    3.9441398982821e-05
  67    4.304496753628e-05
  68    -2.5931517668684e-05
  69    0.00040395475843709
  70    -0.00014826652068505
  71    1.7835786394813e-05
  72    -1.2246464839826e-05
  73    -1.0789895020424e-06
  74    1.4627143812594e-05
  75    1.0951012554109e-05
  76    -0.00022527297185557
  77    -7.1934188158565e-05
  78    8.8283200975994e-06
  79    0.00013685967928733
  80    -9.225615844863e-05
  81       1.0010270131716
  82    0.00050839737360649
  83    -0.0061171178193044
  84    0.00081714527972075
  85    0.0021133346202962
  86    -0.0012742148331651
  87    -0.00022559395315317
  88    -0.00041945263323115
  89    0.00019120974979331
  90    1.2232837561808e-05
  91    4.0548902795183e-05
  92    8.2078593717912e-05
  93    6.7033421288713e-05
  94    -5.6934991285094e-05
 Sym= A
 Ene=               4
 Spin= Alpha
 Occup=    1.00000
   1    4.3650293584187e-05
   2    4.734377185742e-05
   3    -0.0012525730387854
   4    -0.00014269247803353
   5    -2.3141611177229e-05
   6    -1.6597106591249e-05
   7    -0.00067741947065587
   8    0.00016820907395263
   9    0.00022596934217471
  10    2.1563825661372e-05
  11    1.9411335705474e-05
  12    3.1270508794587e-05
  13    -8.2518314035564e-05
  14    2.0011385732758e-06
  15    -0.00016800355027533
  16    0.00036261268293892
  17    0.0035113671901509
  18    0.00042186030127603
  19    -0.00087538868602868
  20    -0.00054807112757366
  21    -0.00017776063271432
  22    -0.0012173834072194
  23    -0.0010814012270191
  24    -3.2788391883006e-05
  25    -6.1484324321912e-05
  26    0.00010394822905608
  27    -5.9042939528578e-05
  28    -8.4900815540162e-05
  29    -0.00022526443340827
  30    -7.1865575330377e-05
  31    -8.8346713926858e-06
  32    0.00013686940727303
  33    9.2262670957633e-05
  34       1.0010270155138
  35    0.00050982647675314
  36    -0.0061154281568867
  37    -0.00081692876823546
  38    0.0021124338966783
  39    0.0012736338736852
  40    0.00022573185898877
  41    -0.00042005510104859
  42    -0.00019159762775415
  43    1.2236003159921e-05
  44    4.0556641835012e-05
  45    -8.2100484562204e-05
  46    6.7049155899439e-05
  47    5.6946833963263e-05
  48    8.6093911329473e-05
  49    0.00014000440467893
  50    -0.00063093384347839
  51    4.4621226328537e-06
  52    3.9421386273909e-05
  53    -4.3037759471702e-05
  54    2.5930854169036e-05
  55    0.00040393651695353
  56    0.00014827011767933
  57    1.7839139837555e-05
  58    -1.2248026132767e-05
  59    1.0794750853347e-06
  60    1.4631254474679e-05
  61    -1.095122325126e-05
  62    -2.553524489395e-05
  63    -4.5176081673313e-05
  64    0.00011564865269173
  65    -2.1769480781644e-05
  66    -1.0272187529833e-05
  67    4.6021187004872e-07
  68    0.00017996401152029
  69    -1.0827965448172e-05
  70    -2.6111388006682e-05
  71    1.2131362519479e-06
  72    3.3844794065612e-06
  73    -1.3749021135319e-06
  74    2.8818075737843e-06
  75    2.4956012359047e-06
  76    8.519954243524e-05
  77    -9.5308063873475e-05
  78    -5.9115820531436e-05
  79     1.27614583426e-05
  80    -6.8638838292722e-06
  81    2.6418714244176e-05
  82    5.2508348253969e-05
  83    -4.4803459277197e-05
  84    1.9556862920189e-05
  85    1.5823893358455e-06
  86    1.5642741800635e-05
  87    -7.2863506653713e-05
  88    6.5883673749887e-06
  89    -2.4350371664277e-05
  90    8.2129838246879e-06
  91    1.1285295570148e-05
  92    2.111773254962e-06
  93    -1.7590678814952e-05
  94    -5.8377844702423e-07
 Sym= A
 Ene=               5
 Spin= Alpha
 Occup=    1.00000
   1    -0.00016623902069384
   2    0.00037637962736308
   3    0.0035154906790478
   4    -0.0004279671080671
   5    0.00089083616982023
   6    0.00055770585024204
   7    0.00017859779920472
   8    0.0012181856574513
   9    0.0010799407145059
  10    -3.2771591422439e-05
  11    -6.1717357025139e-05
  12    0.00010512558005472
  13    -5.9452854095349e-05
  14    -8.531606364461e-05
  15    4.3800049185435e-05
  16    4.7466966187764e-05
  17    -0.0012546361107298
  18    0.00014312729602699
  19    2.4144443749906e-05
  20    1.7442462304166e-05
  21    0.00067951621694711
  22    -0.00016828648649465
  23    -0.00022363135276371
  24    2.1453108308468e-05
  25    1.8947271891011e-05
  26    3.1370743258508e-05
  27    -8.2304626554176e-05
  28    1.3231180612096e-06
  29    8.5342965198587e-05
  30    -9.7181138815804e-05
  31    5.9096916514468e-05
  32    -1.2684988138822e-05
  33    6.8767606160532e-06
  34    -2.5494145447068e-05
  35    -4.4918750197201e-05
  36    0.00011631658294934
  37    2.1205828738879e-05
  38    1.0581825816616e-05
  39    -3.4346925013065e-07
  40    -0.00018045340001753
  41     1.11727720733e-05
  42    2.5898818198061e-05
  43    1.2290465165713e-06
  44    3.4021440923183e-06
  45    -1.3985086562091e-06
  46    2.862341025244e-06
  47    2.5257554472866e-06
  48    2.6317847984244e-05
  49    5.2373402692454e-05
  50    -4.383820995034e-05
  51    -1.9712159170267e-05
  52    -1.409258485402e-06
  53    -1.5725138589215e-05
  54    7.248006719854e-05
  55    -6.921691879282e-06
  56    2.408460730169e-05
  57    8.217976670706e-06
  58    1.1270129658477e-05
  59    2.0915937905621e-06
  60    -1.7588528788277e-05
  61    -5.8932904218448e-07
  62       1.0010268502081
  63    0.00043368229003555
  64    -0.0062052596720207
  65    0.00083718131105677
  66    -0.0021595553372627
  67    -0.0013005197851698
  68    -0.00021232228992282
  69    0.00038852298189311
  70    0.00017373382381378
  71    1.199411367501e-05
  72    4.0083998313085e-05
  73    -8.1010602298262e-05
  74    6.6291362646517e-05
  75    5.6170650637269e-05
  76    -0.00022504051729899
  77    -7.4891677509906e-05
  78    8.4711738163633e-06
  79    -0.00013630983456697
  80    -9.1899988026809e-05
  81    8.6004798083375e-05
  82    0.00013955189335716
  83    -0.00063086834750314
  84    -4.6365408950988e-06
  85    -4.0354915411751e-05
  86    4.3360679749856e-05
  87    -2.5993311516798e-05
  88    -0.00040478846447686
  89    -0.00014810353479783
  90    1.7667409816972e-05
  91    -1.215959837912e-05
  92    1.0557008519054e-06
  93    1.4406535253136e-05
  94    -1.0933285345377e-05
 Sym= A
 Ene=               6
 Spin= Alpha
 Occup=    1.00000
   1    -0.0027401022387267
   2    -0.0029332447621483
   3     0.013841015198558
   4    0.00030345081064317
   5    -0.0019359923602606
   6    0.00024795828400472
   7     0.032086380004672
   8     -0.02162456913954
   9     0.009599377217248
  10     0.023989163208782
  11     0.010133019945198
  12     0.017605207697227
  13    -0.011097075883101
  14     0.026031130935191
  15    -0.0020540898331718
  16    -0.032527266557034
  17    -0.078174929968091
  18     0.043753042266063
  19    0.0017543705629352
  20    -0.0076451521567563
  21     0.024584207720963
  22      0.02827872227477
  23    -0.0040966342743222
  24    0.00010241087868121
  25    0.00067281905384934
  26    0.0021873798777289
  27    -0.0019785262226761
  28    0.00062604527945874
  29    -0.0069885041089229
  30     0.025897794071711
  31    -0.0009987378142006
  32    -0.00032844526202786
  33    0.00019676709758319
  34    -0.0013812276229094
  35    0.0016156847417386
  36     0.021422981410507
  37    -0.0078197015757893
  38    0.0073373762359297
  39    0.0071580553996666
  40    -0.0073516589020103
  41    0.0087196163558001
  42    0.0095460051185451
  43    0.00011810007110493
  44    0.00045186688146813
  45    0.00020200175731074
  46    -0.00055220065015499
  47    0.0005137713817586
  48    0.00047912855130669
  49    0.00051392211619407
  50    -0.0048592208414508
  51    -0.00047093445799115
  52    -0.0022458510308091
  53    -0.0022550112190985
  54    -0.0034581038107728
  55    -0.0027457785445706
  56    -0.002555452981827
  57    -1.9198580517393e-05
  58    9.5221526034173e-05
  59    0.00025017215178408
  60    -0.0001116191409038
  61    -0.00061997186593649
  62    -0.0016090946424675
  63    0.00082177680790448
  64     0.014426785340327
  65      0.53947157619766
  66    -0.026382562695436
  67      0.39420648128238
  68      0.37521116728838
  69    -0.020311648697716
  70      0.27164292356826
  71    -0.0070950508409582
  72    -0.0024732296764109
  73    -0.0064134511134371
  74    0.0035641732597023
  75    -0.0095597129119171
  76     0.051507509786186
  77     0.048142085566449
  78    -0.0019483779600367
  79    0.0031162454921446
  80    0.00078500830625099
  81    0.00086033295872292
  82    0.00029476663779831
  83    -0.010484340885441
  84    -0.0029948820256046
  85    -0.0023268052693752
  86    -0.0014178699668759
  87    -0.0050892416052116
  88    -0.0021402174863759
  89    0.00059339579118368
  90    0.00060048477329484
  91    0.00023678984296381
  92    0.00030684698870099
  93    -0.00036555761072368
  94    0.00032987891009643
 Sym= A
 Ene=               7
 Spin= Alpha
 Occup=    1.00000
   1    -0.0027394926462087
   2    -0.0029290298592365
   3     0.013841748074414
   4    0.00030193791911274
   5     0.001928557736555
   6    0.00025056569584618
   7     0.032087580172539
   8     0.021622447368674
   9    0.0095973402860622
  10     0.023987997635568
  11     0.010133683075416
  12    -0.017604949685878
  13    -0.011098681873888
  14    -0.026031541351992
  15    -0.002054179592571
  16    -0.032528202704592
  17    -0.078176195837495
  18     0.043754478358769
  19    -0.0017546694333784
  20    -0.0076446467947039
  21     0.024585863449646
  22    -0.028278844522985
  23    -0.004094913078394
  24    0.00010238235104558
  25    0.00067264137959832
  26    -0.0021875238010962
  27    -0.0019784898566002
  28    -0.00062578014246139
  29    -0.0069885144328425
  30     0.025896709816178
  31    -0.0009987026314085
  32    0.00032844792999297
  33    0.00019680173482062
  34    0.00047904248847829
  35    0.00051359222153958
  36    -0.0048589277664668
  37    -0.00047046948739185
  38    0.0022458355073201
  39    -0.0022554660276419
  40    -0.003458105651225
  41    0.0027458522519627
  42    -0.0025558561819101
  43    -1.9204052156514e-05
  44    9.5206384927999e-05
  45    -0.00025018296857954
  46    -0.00011159614844901
  47    0.00062001352602746
  48    -0.0013812271361524
  49    0.0016158784156956
  50      0.02142364877212
  51    -0.0078203009026876
  52    -0.0073378989305292
  53    0.0071580017683596
  54    -0.0073522798945154
  55    -0.0087200675501298
  56    0.0095458504001092
  57    0.00011811013291277
  58    0.00045188005960095
  59    -0.00020199854280382
  60    -0.00055222785203419
  61    -0.0005137991235286
  62    0.00086021835179393
  63    0.00029534629014259
  64    -0.010481739044323
  65    -0.0029943195176146
  66    0.0023252034062291
  67    -0.0014184828512274
  68    -0.0050887436640622
  69    0.0021386273135873
  70    0.00059286124542682
  71     0.000600407690612
  72    0.00023685034095462
  73    -0.00030681624166152
  74    -0.00036562866248999
  75    -0.00032991023937807
  76     0.051506373835179
  77     0.048140111120278
  78    -0.0019484800684866
  79    -0.003116402266632
  80    0.00078515853820025
  81    -0.0016066583014132
  82    0.00079276032044767
  83     0.014392786115491
  84      0.53949585146501
  85      0.02638006362461
  86      0.39417386870935
  87      0.37522779080561
  88     0.020309654778585
  89      0.27162063543477
  90    -0.007094720311556
  91    -0.0024737852354408
  92    0.0064128683611589
  93    0.0035643873807727
  94    0.0095601403991984
 Sym= A
 Ene=               8
 Spin= Alpha
 Occup=    1.00000
   1    0.0020541398111573
   2     0.032527943990451
   3     0.078175969409388
   4      0.04375411675609
   5    0.0017546267818085
   6    -0.007644741295821
   7     0.024585526809405
   8      0.02827881310506
   9    -0.0040952541315712
  10    -0.00010239621378202
  11    -0.00067265824912262
  12    -0.0021875062914912
  13    0.0019784844790636
  14    -0.0006258126874062
  15    0.0027395344896399
  16    0.0029292360276954
  17     -0.01384179534947
  18    0.00030185603424198
  19    -0.0019295111270557
  20    0.00025054876900616
  21     0.032087259462428
  22    -0.021623024059692
  23    0.0095978363405081
  24    -0.023988341063498
  25    -0.010133462867255
  26    -0.017605131927583
  27      0.01109824398568
  28    -0.026031371008826
  29    -0.051506720828843
  30     -0.04814047204444
  31    -0.0019484773980549
  32     0.003116400057391
  33    0.00078514303527582