[Molden Format]
made by pyscf v[2.0.1]
[Atoms] (AU)
O   1   8     0.00000000000000     0.00000000000000     0.00000000000000
O   2   8     2.75227162082039     0.00000000000000     0.00000000000000
H   3   1     3.06432366844540     0.00000000000000     1.80733789576484
H   4   1    -0.31205204762501     1.38450115188900     1.16173440591458
[GTO]
1 0
 s    6 1.00
             5484.6717   0.001831099805527
             825.23495   0.013950098518422
             188.04696    0.06844509273075
               52.9645    0.23271427528445
              16.89757    0.47019295006289
             5.7996353    0.35852086192309
 s    3 1.00
             15.539616   -0.11077750382508
             3.5999336   -0.14802630511126
             1.0137618     1.1307670390447
 s    1 1.00
             0.2700058                   1
 p    3 1.00
             15.539616   0.070874299543311
             3.5999336    0.33975279781076
             1.0137618    0.72715859531445
 p    1 1.00
             0.2700058                   1
 d    1 1.00
                   0.8                   1

2 0
 s    6 1.00
             5484.6717   0.001831099805527
             825.23495   0.013950098518422
             188.04696    0.06844509273075
               52.9645    0.23271427528445
              16.89757    0.47019295006289
             5.7996353    0.35852086192309
 s    3 1.00
             15.539616   -0.11077750382508
             3.5999336   -0.14802630511126
             1.0137618     1.1307670390447
 s    1 1.00
             0.2700058                   1
 p    3 1.00
             15.539616   0.070874299543311
             3.5999336    0.33975279781076
             1.0137618    0.72715859531445
 p    1 1.00
             0.2700058                   1
 d    1 1.00
                   0.8                   1

3 0
 s    3 1.00
             18.731137    0.03349459952309
             2.8253937    0.23472694665786
             0.6401217    0.81375731841339
 s    1 1.00
             0.1612778                   1
 p    1 1.00
                   1.1                   1

4 0
 s    3 1.00
             18.731137    0.03349459952309
             2.8253937    0.23472694665786
             0.6401217    0.81375731841339
 s    1 1.00
             0.1612778                   1
 p    1 1.00
                   1.1                   1

[5d]
[7f]
[9g]

[MO]
 Sym= A
 Ene=               0
 Spin= Alpha
 Occup=    2.00000
   1       1.0097855952284
   2    -0.091653087092904
   3     -0.14068373728508
   4     0.044466022482421
   5     0.088716380272968
   6      0.03688611571309
   7     0.029377892188519
   8     0.057596187360061
   9     0.021051177602108
  10    -0.00078736316952266
  11    0.0012805824712303
  12    0.0040991646478357
  13    -0.0019688761967329
  14    0.0020334486275889
  15    -0.0026773914000383
  16    0.0062327526656355
  17      0.01524478980899
  18    -0.012702035729997
  19    -0.0052099383221623
  20    -0.00059083387047287
  21    -0.014934405718779
  22    -0.0076806858564304
  23    0.0003286381519028
  24    0.00064177744571202
  25    -0.0014349922921404
  26    8.3919313199381e-05
  27    -0.0007647578159172
  28    -0.0020822866435174
  29    -0.0022342519816473
  30    -0.0060466529572881
  31    -0.000575023488273
  32    -0.00023663934958648
  33    0.00019358567399818
  34      0.01855138298631
  35     0.023846918659425
  36    0.0014143799438985
  37    0.0025118511869859
  38    0.0010584421134443
 Sym= A
 Ene=               1
 Spin= Alpha
 Occup=    2.00000
   1    -0.0026809131867243
   2    0.0062083440944112
   3     0.015423659241909
   4     0.012459935707983
   5    0.0018867167303265
   6    -0.0041910968655315
   7     0.014710058095077
   8    0.0035796397212496
   9    -0.0054105868432106
  10    0.00054238292276074
  11    0.0025284557889917
  12    0.0001416312356752
  13    -0.00077448113409313
  14    0.00027973707581734
  15        1.010869525269
  16    -0.090584925681589
  17     -0.13909501917904
  18    -0.043960704755432
  19    -0.0062458116210312
  20     0.090796753780983
  21    -0.029122890462727
  22    -0.0045373125942062
  23     0.057200718263547
  24    0.0043386737464812
  25    -0.0023902591920893
  26    -0.00012982195146452
  27    0.00095869422811456
  28    -4.4355376136208e-06
  29      0.01827709974936
  30      0.02364468846708
  31    -0.0013942772125318
  32    -9.4021896438919e-05
  33    0.0025952244355897
  34    -0.0029993463193347
  35    -0.0064359578778023
  36    0.00062281629546152
  37    0.0002860075284147
  38    -2.3003268552381e-05
 Sym= A
 Ene=               2
 Spin= Alpha
 Occup=    2.00000
   1    -0.0017764525271696
   2    0.0046320485335571
   3      0.01490186828853
   4    0.0017729397907662
   5    -0.029515867744122
   6    0.0023771117286822
   7    0.0025692627863473
   8    -0.045888463566772
   9    0.0040023868622662
  10    0.0005799612170844
  11    0.0020564848279417
  12    -0.0013079527323825
  13    0.00099662033987366
  14     0.015631190675713
  15     0.001614330939502
  16    -0.048428727863442
  17    -0.044769309615894
  18    -0.015678785962377
  19      0.66464279849923
  20     0.035386273558813
  21    -0.014998330481266
  22      0.48282420946875
  23     0.026849009305532
  24    0.00053288687371078
  25    -0.0020893489895613
  26     0.023654852625733
  27    -0.00077416252190208
  28    -0.0098131472261246
  29    0.0041846978800233
  30    0.0092804872099138
  31    -0.00041427194038473
  32     0.021013404111947
  33    0.00072812440491811
  34    -0.024773966603288
  35    -0.016495057163096
  36    0.0018318674725439
  37    -0.00026081999187901
  38    0.00099056016195035
 Sym= A
 Ene=               3
 Spin= Alpha
 Occup=    2.00000
   1     0.034364406366303
   2    -0.056050142761376
   3    -0.054732165982231
   4     0.018897826231951
   5     -0.39418327438609
   6       0.5350946501231
   7     0.017255715143142
   8     -0.28590037523735
   9      0.38909832355261
  10     0.020577933506785
  11    0.0089677192627176
  12     0.004472221679037
  13     0.010736544973973
  14    -0.0045598604031799
  15    -0.0019514888184427
  16     0.005136733136195
  17     0.015946220798077
  18    -0.0026916685511907
  19     0.020432879382902
  20    -0.021158841227095
  21    -0.0035863686344782
  22      0.03203637330715
  23    -0.032602242887161
  24    -0.0015109133051028
  25    -0.013414391710089
  26    0.00076594243803438
  27    -0.00029452873228799
  28    0.0083327182936605
  29    -0.024945433207815
  30    -0.016967159743394
  31    -0.0018741974042556
  32    0.00091054402254385
  33    0.00044901956134445
  34    0.0055330368795116
  35     0.010962585530563
  36    0.00051924551890436
  37    -0.012816877659664
  38     0.016630206068251
 Sym= A
 Ene=               4
 Spin= Alpha
 Occup=    2.00000
   1     -0.11224436412137
   2      0.24845429134943
   3      0.17753950215181
   4    -0.068757148386847
   5      0.33025900562391
   6      0.27409621240015
   7    -0.018089300464861
   8       0.1910106253813
   9      0.16093307764384
  10    0.0053566454465073
  11    0.0015068167781508
  12     0.022086049172694
  13    -0.014409911538211
  14    0.0010858562938243
  15    0.0038678596198536
  16    -0.011471957836812
  17    -0.026038456803547
  18     0.029134737234223
  19    -0.012210093977524
  20    -0.013036652369901
  21     0.038601312829938
  22    -0.023709663759979
  23    -0.015557085646819
  24    -0.002350470237397
  25    -0.0058210054195368
  26    0.00093905074435938
  27    0.0023120827205973
  28    -0.0070456698292358
  29    -0.010205807836253
  30    -0.011364164527714
  31    0.0012886920860696
  32    -0.00037995821025637
  33    0.00056146607844125
  34      0.30867965365264
  35      0.11471454861785
  36    0.0055913456309181
  37    -0.026465465220349
  38    -0.021045659089471
 Sym= A
 Ene=               5
 Spin= Alpha
 Occup=    2.00000
   1     0.003880104901756
   2    -0.011468197890398
   3    -0.026035404332536
   4    -0.029134054413473
   5    -0.0021259717526072
   6    -0.017740066682598
   7    -0.038599885471378
   8    0.0033330837496482
   9    -0.028168608339285
  10    -0.00065576053330299
  11    0.0091392018512254
  12    -0.00070285163121805
  13    0.0032899524895001
  14    -7.053867264833e-05
  15      -0.1123237712151
  16      0.24843147707694
  17       0.1775149346645
  18     0.068750517744987
  19    -0.0023587261071436
  20      0.42919521830583
  21     0.018084394623972
  22    0.00047153783505212
  23      0.24977933700756
  24      0.02680194014995
  25    -0.0018006026792032
  26    0.0013067512865501
  27    -0.0020284863294747
  28    -0.00045592965173886
  29      0.30868366655496
  30      0.11471878641134
  31    -0.0055915615514306
  32    0.00088844623034619
  33    -0.033801459061824
  34    -0.010201783210173
  35    -0.011363397767783
  36    -0.0012886574629324
  37    0.00067438338330406
  38    6.9316309520805e-05
 Sym= A
 Ene=               6
 Spin= Alpha
 Occup=    2.00000
   1    0.0099210703472112
   2    -0.025066240198918
   3    -0.047221681645458
   4    -0.046115405148071
   5    -0.0090051637285329
   6     0.016300114352385
   7    -0.048550121973243
   8    -0.016408354565933
   9     0.021342187718916
  10    -0.0023069992090847
  11    -0.0093039918105128
  12    -0.0002079400841227
  13    0.0031667732010036
  14    -0.00010500624517755
  15     0.072014067646253
  16      0.42814269374584
  17      0.49568955301263
  18      0.16208237933304
  19     0.069193511454095
  20     -0.33612816694745
  21      0.11946542716571
  22      0.04993130211826
  23     -0.21974900870809
  24    -0.013701504392642
  25    0.0095875407704396
  26    0.0020784525003159
  27    -0.0065630182307132
  28    -0.00060407973565878
  29    -0.070482065699101
  30     -0.08412763780399
  31    0.0054588767472278
  32    0.0017954833097716
  33    -0.0051506413100277
  34    0.0081360864023626
  35     0.024505065580251
  36    -0.0020825904005593
  37    -0.00096261900817148
  38    0.00022344124215027
 Sym= A
 Ene=               7
 Spin= Alpha
 Occup=    2.00000
   1     0.078808028345878
   2      0.42697025226925
   3      0.49423080621808
   4     -0.16160074540269
   5     -0.30572070041193
   6     -0.15705882304731
   7     -0.11909874950979
   8     -0.20319523482521
   9    -0.098675229443373
  10     0.003684590818836
  11    -0.0055953054150557
  12    -0.014484746987879
  13    0.0034546951284567
  14    -0.0077690343243943
  15    0.0099368359947655
  16    -0.024966600365029
  17    -0.046949025386095
  18     0.046005560615177
  19     0.018501388305555
  20    0.0033432471547667
  21     0.048416724219802
  22     0.027224213140404
  23    0.00079678969538356
  24    -0.0020756574375772
  25    0.0059074228248262
  26    -0.00043435006784042
  27    0.0032997585609403
  28    0.0071373219452883
  29    0.0078513878939407
  30     0.024284367069728
  31    0.0020587237519834
  32    0.00079949503470365
  33    -0.00058769224628501
  34    -0.070334238868479
  35    -0.083873548643473
  36    -0.0054449822810736
  37    -0.0052210388483348
  38    -0.0017471184288627
 Sym= A
 Ene=               8
 Spin= Alpha
 Occup=    2.00000
   1    -0.057884766706272
   2      0.11951842544594
   3      0.06905708786944
   4      0.40523704564118
   5    -0.005247671973439
   6    -0.0083450300954247
   7      0.25418451250774
   8     0.009998703030167
   9     0.011176489418395
  10    -0.018676640331892
  11     0.011748585389623
  12    -0.0024351350219767
  13     0.034694055183756
  14     0.011015611122995
  15     -0.05783337297055
  16      0.11951578073378
  17     0.069051836780922
  18     -0.40523814105753
  19    -0.0029970675506287
  20    -0.009378884054139
  21     -0.25418518577687
  22    0.0021504602948738
  23      0.01484753546192
  24    -0.021945066589847
  25    -0.015989898529638
  26    0.00073270710985852
  27     0.032806868192799
  28    -0.0019198216089694
  29    -0.030909151215571
  30    -0.050439193767098
  31    -0.0095513623991772
  32    -0.00050916085858501
  33    -0.0010945587152153
  34    -0.030911434493245
  35     -0.05044109923948
  36    0.0095513802429158
  37    -0.00051075123183289
  38    -0.0010941563582412
 Sym= A
 Ene=               9
 Spin= Alpha
 Occup=    0.00000
   1     0.011488636310041
   2      -1.5757534396732
   3       3.2718027464954
   4    -0.036015968356772
   5     -0.11425815956151
   6      0.37442363468345
   7      0.86922052583372
   8      0.80171152582267
   9     0.080269424842589
  10     -0.19336777870607
  11      -0.3213053241055
  12      0.40086466820064
  13      0.18284806845507
  14    -0.051124383570973
  15      0.04403485836572
  16      0.16354338666766
  17      -1.1866840972813
  18      0.13731017605703
  19    -0.013036752849155
  20     0.019570370952234
  21      0.94929662619204
  22    -0.079751262128324
  23      0.10486305814784
  24      0.13007353470378
  25     -0.02793081647879
  26    -0.002624774016886
  27     -0.23846013480418
  28     0.048152163714727
  29     0.024119732747474
  30    -0.059402166061811
  31    -0.030187872475903
  32     0.012461645954419
  33     0.026914812499354
  34     -0.68973641698651
  35     -0.80858228722691
  36    -0.063459418399959
  37      0.16975509978507
  38      0.18645107183473
 Sym= A
 Ene=              10
 Spin= Alpha
 Occup=    0.00000
   1     0.028277356211597
   2      0.14128775526391
   3     -0.79564163360495
   4    -0.069065895367914
   5    0.0084174821437457
   6    -0.015444284089407
   7     -0.60920141043558
   8    0.00030360426088466
   9     -0.12546878057611
  10     0.088259975860584
  11    -0.064486043064631
  12    -0.023607850348756
  13     -0.14753868827847
  14     0.014286352612373
  15     0.010118026466578
  16      -1.5817440010214
  17       3.3437405254775
  18     -0.19842050109402
  19      0.14610649581585
  20    -0.060073414691913
  21       -0.163481921896
  22     -0.17918232347267
  23       1.3235571543693
  24      0.45501095840873
  25      0.18985168766759
  26    -0.0025261541315498
  27      0.26260180692543
  28      0.02745531344634
  29     -0.98332980609201
  30      -1.2258680500418
  31     0.061460565854463
  32     0.014585260633438
  33      0.34504667414453
  34     0.065991224178951
  35     0.035334159197879
  36     0.023899065717365
  37    -0.0056833282013173
  38     0.016805202083424
 Sym= A
 Ene=              11
 Spin= Alpha
 Occup=    0.00000
   1    0.0064996926779928
   2    -0.042480743711154
   3     -0.37211105507708
   4    -0.015252491816399
   5    0.0079470765484518
   6     0.017896939269021
   7      0.10110283418091
   8    -0.079726626196893
   9    -0.012344908170648
  10     0.021195690148459
  11    -0.070938313840005
  12      0.11711265468997
  13    -0.0086910680702225
  14    -0.075735503385873
  15    0.0048730449375958
  16     0.040147345820094
  17    -0.096267904769552
  18    0.0062124178072619
  19    -0.0090670617797338
  20     0.016868314915391
  21      0.17861493903021
  22     -0.10277771166596
  23      0.01543383040047
  24      0.01365316950234
  25     0.010599014384352
  26     -0.01632884350753
  27    -0.0031802235100738
  28     0.008898923224108
  29    -0.009321796026233
  30     -0.27868290107721
  31     0.018255416521092
  32    -0.00084639013800776
  33     0.018583293516198
  34      -1.0547691712829
  35       1.5987929932103
  36      0.42363782344972
  37    0.0042480366650525
  38     -0.19706193123177
 Sym= A
 Ene=              12
 Spin= Alpha
 Occup=    0.00000
   1    -0.0050216433019057
   2    -0.033924643645429
   3      0.10171120257895
   4    0.0096387508083085
   5    -0.019603286533177
   6    0.0019156924679321
   7      0.17276001189506
   8    -0.073506464257472
   9     0.079252714114223
  10     0.012159459091719
  11     0.021782618583457
  12    -0.007349677827112
  13     0.014134613037243
  14    0.0016146466300456
  15     0.013616221347721
  16    -0.029493008426813
  17      0.09445490092451
  18    -0.039185456241766
  19    -0.0087377054399117
  20     -0.18509510309147
  21     0.080233783183578
  22    -0.041306806844854
  23     -0.13330974772701
  24     -0.25423540504765
  25     -0.12753111243186
  26    -0.034074936371459
  27    -0.040898097732547
  28    -0.0056881698134137
  29       1.2940531335824
  30      -1.4322644451021
  31      0.26433382546771
  32      0.15421997254789
  33     -0.31964827289065
  34     0.012480740348348
  35       0.2622308811635
  36     0.021546651851534
  37    -0.013898643040214
  38    -0.012222091977456
 Sym= A
 Ene=              13
 Spin= Alpha
 Occup=    0.00000
   1     0.088357991861976
   2     -0.41888162158767
   3     -0.34588827671767
   4      0.13930560622758
   5     -0.47120304962767
   6      -0.3912959702157
   7     0.050145988362609
   8      -0.3026461417324
   9     -0.25655889294019
  10    -0.011218051812258
  11     0.010417789190259
  12    -0.078841293901903
  13     0.043229372504505
  14     0.012264862426603
  15     0.004278388133758
  16    -0.024010915232421
  17    -0.011464068416012
  18    0.0014011930183753
  19    0.0096858946103371
  20     0.023764182427221
  21    -0.020449399714793
  22      0.02100297991858
  23     0.014559443789222
  24    -0.00058833121688733
  25    -0.0024443382366182
  26    0.0030786978770208
  27    -0.0032902094267128
  28    -0.0023063087617528
  29    -0.034792131612919
  30    -0.0047058050208298
  31    -0.0045798920481577
  32    0.00020621613362616
  33    -0.0029925342998406
  34      0.88162340532088
  35       0.5559953425429
  36     0.019874964374368
  37    -0.060575848882305
  38    -0.047864344661058
 Sym= A
 Ene=              14
 Spin= Alpha
 Occup=    0.00000
   1    -0.020490955972874
   2      0.47863092524886
   3     -0.79251788075704
   4     -0.57953732241374
   5     -0.14998450549104
   6      0.39851985577409
   7         1.31063672377
   8     -0.37844638423737
   9     -0.99351093657999
  10     -0.13798048135716
  11     -0.26933070086851
  12     -0.15609260348381
  13      0.32676662421324
  14      0.31580056458238
  15     0.019745172370738
  16    0.0061780180451555
  17     -0.53765351139787
  18      0.10144483927123
  19    -0.0010287107952314
  20     0.035486824902576
  21      0.45133361481301
  22    -0.048657887111431
  23      0.28200445997912
  24     0.086362315062221
  25    -0.091212611411095
  26    -0.0060547810527785
  27    -0.091752447194764
  28      0.02099970338596
  29    -0.072055034272895
  30     -0.15499461543435
  31    0.00014816016295359
  32    -0.00078393574893527
  33     0.028876598465389
  34      0.51567623696889
  35       0.8486223227637
  36    -0.047560880716829
  37      -0.1709044206088
  38     -0.10491411241966
 Sym= A
 Ene=              15
 Spin= Alpha
 Occup=    0.00000
   1    -0.021028899959179
   2    -0.057207617324001
   3      0.51951520326188
   4     0.072254021769187
   5    -0.0080768659678946
   6    -0.044153726521419
   7       0.4960212093247
   8    -0.088059712541213
   9     -0.34692298536946
  10    -0.064090094745631
  11     -0.13805473743888
  12    -0.024271374950349
  13      0.11494159197815
  14    0.0071859494108019
  15    -0.035648068208385
  16       0.4434891533622
  17     -0.38132427616661
  18    -0.097304917786684
  19     -0.10274212542829
  20     -0.75900245677267
  21      0.71854170800094
  22      0.12441145665122
  23       1.4687599412165
  24      0.22717001787173
  25     -0.35657972413418
  26    0.0076152940016012
  27      -0.1486740704457
  28     0.040476418274381
  29     -0.42234722256572
  30     -0.55110918557361
  31     0.057112607390508
  32    -0.015127533278408
  33     0.049404181689964
  34     0.056757508427076
  35      0.15346515670923
  36    -0.018897129236089
  37    -0.038908033330356
  38    -0.0042933865932212
 Sym= A
 Ene=              16
 Spin= Alpha
 Occup=    0.00000
   1    -0.026855262411882
   2     -0.12078189486917
   3       1.0622108055877
   4     0.092902413006941
   5    0.00099185122601142
   6    0.0061952787002993
   7      0.78537577237984
   8     0.015031632451473
   9      0.08909900632042
  10    -0.068988526721555
  11       0.0657681183405
  12      0.02484538174807
  13      0.10951213903515
  14     0.041181531438957
  15      0.02473153424451
  16      0.43298021978417
  17      -1.3001778596788
  18     -0.69393496550509
  19     -0.17487967317245
  20      0.14062777499685
  21       1.6478760369502
  22      0.18717082119492
  23     -0.34541511972087
  24     -0.10255034731638
  25      0.26097919514536
  26    -0.0064113033055448
  27      0.10557261198569
  28      0.39652867465085
  29      0.22535893664528
  30     0.022165423767453
  31      -0.1915183244403
  32    -0.028792734310242
  33    -0.013689608011278
  34    -0.084838070910365
  35      0.15554690000023
  36    -0.023030186747521
  37    -0.0072642972725913
  38    -0.010480460107894
 Sym= A
 Ene=              17
 Spin= Alpha
 Occup=    0.00000
   1    -0.00084795023875519
   2    -0.024644686398477
   3     0.011618899707066
   4    -0.0067429056852474
   5    -0.00098001626760192
   6    -0.017635118072627
   7     0.055305002034787
   8    -0.028128725944387
   9    -0.020720457293638
  10    -0.0037840874814696
  11    -0.020026423507794
  12    -0.0016537781569809
  13     0.013903804989558
  14     0.002776519416308
  15     -0.06176974440259
  16      0.22811006313788
  17      0.90049818559804
  18     0.075289604150405
  19    -0.0011048125648724
  20       0.5014127375405
  21         0.10579294029
  22    -0.0089141298355665
  23        0.620623298328
  24      0.42088819966426
  25     0.069657485318646
  26    -0.0063121835707077
  27    -0.0065367560971062
  28    -0.0010046715302144
  29     -0.52332028311688
  30     -0.80404653451511
  31      0.47683018316204
  32     0.025987952239138
  33       1.3757485398678
  34    -0.0057635107962726
  35      0.10038116578541
  36    -0.0058540007628668
  37    -0.0060093720178559
  38    0.00066734330922176
 Sym= A
 Ene=              18
 Spin= Alpha
 Occup=    0.00000
   1     0.027473663001275
   2     0.094775343656308
   3     -0.78653198289371
   4     -0.10654865126763
   5      0.01666965625686
   6    -0.0021994492019979
   7     -0.63817731481482
   8    -0.093005507794243
   9    -0.014534148661117
  10     0.089389715963087
  11    -0.037789704992809
  12    -0.014452837351544
  13     -0.14443121376366
  14    -0.010485876083566
  15    0.0022830864653009
  16     -0.55485142868244
  17       1.1334743050977
  18      0.25924422075196
  19     -0.71547818684538
  20     0.037564551521955
  21     -0.98700684901299
  22      0.86800255532549
  23    -0.043903177865102
  24      -0.1878151964871
  25     -0.30606446915562
  26     0.011571958969495
  27      0.21190153464087
  28      0.40527591626468
  29     0.018019841955157
  30     0.019334980498893
  31      0.10342582247948
  32    -0.088593850584388
  33    -0.060018630069055
  34     0.067376121199571
  35     -0.17824075921386
  36    0.0013089886776502
  37     0.015414898562009
  38     0.008939118886917
 Sym= A
 Ene=              19
 Spin= Alpha
 Occup=    0.00000
   1    -0.063018081140639
   2      0.22766148432467
   3       0.8279370225325
   4    -0.085891905988582
   5      0.40640494442851
   6      0.34702549593809
   7    -0.085234799528136
   8      0.47628566399945
   9      0.41517704237735
  10     0.063814620228585
  11    -0.072826833090556
  12      0.41237993323998
  13     -0.23239158753404
  14    -0.084179588764218
  15    0.00060199463596236
  16    -0.012544788459873
  17    -0.016775669442867
  18    0.0084776384117239
  19    -0.016214942954643
  20    -0.0074499962115701
  21    -0.0019434034412167
  22    -0.030377152981536
  23    -0.033627955653185
  24    -0.0056942306490181
  25     0.014802064137867
  26    -0.0019203683461423
  27      0.01076100828323
  28     0.020138919861378
  29    -0.0081843315278049
  30     0.016159323826533
  31     0.012015046614159
  32     0.004424498562677
  33    0.0012783848183086
  34     -0.89212278585491
  35     -0.33276074119246
  36       -0.344607335833
  37       1.1213315568189
  38      0.86563826556459
 Sym= A
 Ene=              20
 Spin= Alpha
 Occup=    0.00000
   1    -0.0023451852602247
   2    0.0045194436504778
   3    -0.012254171118752
   4    -0.0037718380554874
   5      0.08302872511409
   6    -0.052286360936979
   7     0.022514570896795
   8       0.1696128899397
   9     -0.17036598276213
  10     -0.18902119243929
  11     0.012435376342084
  12    -0.00037045848220254
  13     -0.12666095379201
  14    -0.029424957482383
  15    0.00018715592557783
  16    0.0027732899399812
  17    -0.0017763234154426
  18    0.0026983171558067
  19    -0.0075897392979086
  20    0.0096763338379905
  21     0.033518103223685
  22    -0.043205416858125
  23     0.046009662849322
  24     0.012530947868739
  25    -0.0091561527739297
  26    -0.0016944750069267
  27    0.0023602651433212
  28     0.015477394017138
  29    -0.014443490434745
  30    -0.059397040918875
  31    -0.00020306684876569
  32    0.00030945569160935
  33    0.0092054014865737
  34     -0.20675337836437
  35      0.22980265632858
  36     0.012329504446845
  37     -0.67101161759704
  38      0.86979800095274
 Sym= A
 Ene=              21
 Spin= Alpha
 Occup=    0.00000
   1     0.012428502785946
   2     0.014870763929571
   3     -0.30564147853447
   4    -0.058739570660051
   5    -0.0034518377718568
   6     0.033509824439159
   7     -0.24158953383392
   8    -0.061992843026956
   9     0.068838420533284
  10     0.043909430501112
  11     0.089997992305599
  12    0.0031717642690177
  13    -0.072475553330546
  14    -0.028510505130587
  15    -0.033861210795754
  16     0.071028612931135
  17      0.38248565794204
  18      0.24188016531749
  19     -0.23543120377736
  20     -0.23811339145408
  21     -0.46618846115067
  22      0.29561408394341
  23      0.47380717371414
  24    -0.039161966155307
  25      0.94366449216853
  26    -0.071581158086204
  27      0.22788233720924
  28    -0.078954715727096
  29     -0.27248715608122
  30     -0.13591425298607
  31     -0.13613783082205
  32    -0.0074912275884517
  33      0.10917688604331
  34    0.0078705722044137
  35    -0.056388448456875
  36    -0.016764346120165
  37     0.010873946596097
  38    -0.0025452732196033
 Sym= A
 Ene=              22
 Spin= Alpha
 Occup=    0.00000
   1    -0.0057398451473195
   2     0.077997636184676
   3      0.10977041257637
   4    -0.085596546483229
   5     0.022116790020403
   6     0.016946338889479
   7     -0.38511037053807
   8     0.036017552065079
   9     0.019125631856043
  10    -0.010104279848479
  11     -0.13288802577127
  12    -0.051778736147784
  13     0.020701799535294
  14     -0.16198503568962
  15    -0.0072437405464851
  16    0.0071793854703813
  17      0.17719581246045
  18    -0.036093682016517
  19    0.0094205859398431
  20    -0.0019177488271214
  21     -0.12809986757315
  22     0.016536487162658
  23    -0.032115188525621
  24    -0.025433939569107
  25    -0.020780373157246
  26    -0.0018442629231473
  27     0.020856051977977
  28    -0.024046685663814
  29     0.032074128483164
  30      0.08715609373252
  31    -0.015301241329638
  32    0.0058942704549113
  33    -0.013637756059739
  34      0.34119144304387
  35     -0.66537636152932
  36      0.99168732202742
  37      0.27450049471582
  38      0.27228864912418
 Sym= A
 Ene=              23
 Spin= Alpha
 Occup=    0.00000
   1    0.00023122598330266
   2    0.0031007514417752
   3    -0.0027916628563697
   4    -0.0027460783059802
   5     0.012200545179602
   6    0.00089236476480973
   7    -0.034672070471249
   8     0.063482477918085
   9    -0.0020398906823691
  10    -0.00076529517171987
  11    -0.0054618738464217
  12     0.011647568199542
  13    -0.0060648058016024
  14     0.016898525826129
  15    -0.00031762319768944
  16    -0.0033042074225238
  17    -0.039159001257522
  18    0.00032901656344684
  19    -0.093513273473846
  20     0.012971965875015
  21    -0.028533483206883
  22     -0.23970063403317
  23    0.00024858716038628
  24     0.026892633073535
  25    0.0092132622132906
  26     -0.22382552789415
  27    0.0062257896776782
  28    -0.028456758640572
  29     -0.18158474305934
  30      0.24584168377395
  31    -0.014466375457816
  32       1.0985754637601
  33    -0.0027282287642627
  34    -0.014457285104019
  35    -0.060620081148909
  36    0.00044739245359329
  37    0.0070308810750365
  38    0.0060552161592943
 Sym= A
 Ene=              24
 Spin= Alpha
 Occup=    0.00000
   1    -0.001603749825698
   2      -0.5769932016333
   3       1.2424251043872
   4     -0.30465502437194
   5      0.45177282888222
   6      -0.5500029991643
   7       1.0786186950497
   8     -0.51107689283298
   9        0.700110414047
  10     -0.12097678897053
  11     -0.10779287486364
  12    -0.043993285796526
  13      0.23872840755839
  14      0.46963232560921
  15     0.029011196195109
  16      0.10163172381114
  17     -0.84928731897669
  18      0.11219226798952
  19    -0.012707877173265
  20     0.010842534874418
  21      0.68180453223542
  22     0.039927381051391
  23    -0.093310866635652
  24      0.07376309606574
  25       0.0373185887697
  26    0.0027212230124805
  27     -0.16232519273246
  28     0.024747232528532
  29     0.074421024959206
  30     -0.18381249138103
  31    -0.0014927387002438
  32    -0.0022603641076901
  33     0.017544472885315
  34     -0.02929109748644
  35    -0.018277017341329
  36     -0.11098697811195
  37     0.017292432692058
  38    -0.098543531704175
 Sym= A
 Ene=              25
 Spin= Alpha
 Occup=    0.00000
   1     0.044783427043718
   2     0.049339381999746
   3     -0.85101278357617
   4      -0.1926709729717
   5     0.004620668594819
   6    -0.0030155549741967