[Molden Format]
made by pyscf v[2.0.1]
[Atoms] (AU)
O   1   8     0.00000000000000     0.00000000000000     0.00000000000000
O   2   8     2.75227162082039     0.00000000000000     0.00000000000000
H   3   1     3.06432366844540     0.00000000000000     1.80733789576484
H   4   1    -0.31205204762501     1.77988037206198     0.31384093202795
[GTO]
1 0
 s    6 1.00
             5484.6717   0.001831099805527
             825.23495   0.013950098518422
             188.04696    0.06844509273075
               52.9645    0.23271427528445
              16.89757    0.47019295006289
             5.7996353    0.35852086192309
 s    3 1.00
             15.539616   -0.11077750382508
             3.5999336   -0.14802630511126
             1.0137618     1.1307670390447
 s    1 1.00
             0.2700058                   1
 p    3 1.00
             15.539616   0.070874299543311
             3.5999336    0.33975279781076
             1.0137618    0.72715859531445
 p    1 1.00
             0.2700058                   1
 d    1 1.00
                   0.8                   1

2 0
 s    6 1.00
             5484.6717   0.001831099805527
             825.23495   0.013950098518422
             188.04696    0.06844509273075
               52.9645    0.23271427528445
              16.89757    0.47019295006289
             5.7996353    0.35852086192309
 s    3 1.00
             15.539616   -0.11077750382508
             3.5999336   -0.14802630511126
             1.0137618     1.1307670390447
 s    1 1.00
             0.2700058                   1
 p    3 1.00
             15.539616   0.070874299543311
             3.5999336    0.33975279781076
             1.0137618    0.72715859531445
 p    1 1.00
             0.2700058                   1
 d    1 1.00
                   0.8                   1

3 0
 s    3 1.00
             18.731137    0.03349459952309
             2.8253937    0.23472694665786
             0.6401217    0.81375731841339
 s    1 1.00
             0.1612778                   1
 p    1 1.00
                   1.1                   1

4 0
 s    3 1.00
             18.731137    0.03349459952309
             2.8253937    0.23472694665786
             0.6401217    0.81375731841339
 s    1 1.00
             0.1612778                   1
 p    1 1.00
                   1.1                   1

[5d]
[7f]
[9g]

[MO]
 Sym= A
 Ene=               0
 Spin= Alpha
 Occup=    2.00000
   1    -2.0498281517603e-05
   2    -0.00039890950129617
   3    0.0024819290861471
   4    0.0002806710114284
   5    6.3052446161344e-05
   6    3.9423615814459e-05
   7    0.0018619225106413
   8    1.8973799276467e-05
   9    5.9796012298329e-05
  10    -0.00013192677270652
  11    6.2116071738325e-05
  12    2.9931308453676e-05
  13    2.0532003347528e-05
  14    -4.8629557682003e-05
  15      0.99581461905811
  16     0.022026223999018
  17    -0.0078248023168852
  18    -0.0010441610966199
  19    -0.00057680493666441
  20    0.0017297861290689
  21    0.0024795579813215
  22    -0.00054495647508343
  23    -0.0009696102544702
  24    0.00071185336429376
  25    0.00015679691283993
  26    -2.7343695059434e-05
  27    -0.00072070548411974
  28    1.9249996122019e-05
  29    -0.00031978846088045
  30    0.0013195208564383
  31    3.8505569997781e-05
  32    -1.5698821838468e-05
  33    0.0011860046845972
  34    -0.00035614529066851
  35    0.00048385520494693
  36    5.5636840208671e-05
  37    1.4394439278001e-05
  38    -2.3899151317718e-06
 Sym= A
 Ene=               1
 Spin= Alpha
 Occup=    2.00000
   1      0.99582861154659
   2     0.021993791872665
   3    -0.0078640684223363
   4    0.0010570121404908
   5    0.0018398233022028
   6    -0.0003191446291996
   7    -0.0024706324354244
   8    -0.00083584777122162
   9    -0.000743052463103
  10    0.00027184171495756
  11    -4.6937924010622e-05
  12    6.0625856920528e-05
  13    -0.00097477489586927
  14    -0.00015022985267287
  15    -2.1210261079364e-05
  16    -0.00039711101614561
  17    0.0024840245211078
  18    -0.00028470526704216
  19    2.5785711036631e-05
  20    7.1374225063535e-05
  21    -0.0018661451871042
  22    5.2463986630766e-05
  23    3.2836904715239e-05
  24    5.1947460429687e-05
  25    3.8235821101087e-05
  26    -7.5167952845849e-06
  27    0.0001262373938647
  28    -7.0447265724502e-05
  29    -0.00035368247803503
  30    0.00048418803067879
  31    -5.5636033347003e-05
  32    -4.9526586143775e-06
  33    1.3696486435684e-05
  34    -0.00031400112059771
  35    0.0013254652581328
  36    -3.8096524386036e-05
  37    0.0011714117323876
  38    0.00018885314251808
 Sym= A
 Ene=               2
 Spin= Alpha
 Occup=    2.00000
   1    0.0056569492687235
   2    -0.014947013048379
   3     -0.01671845209346
   4    -0.033732872142889
   5    -0.024701906850348
   6      0.01402714598192
   7    -0.035469767403983
   8    -0.037951685950256
   9     0.020691353761454
  10    -0.00034782650856096
  11     -0.00519633113024
  12    0.00017732201310108
  13    0.0037345388169578
  14     0.011498978545122
  15     -0.11786423645841
  16      0.27290009022802
  17      0.33095119197235
  18      0.10782394738304
  19      0.51584247086719
  20     -0.22425288156225
  21      0.07464204842836
  22      0.37720549105816
  23     -0.14653623874273
  24    -0.010216746943981
  25    0.0058357815126095
  26     0.016934444330877
  27    -0.0056805825334986
  28    -0.0080441906346385
  29    -0.048724100819161
  30    -0.049807500567803
  31    0.0034405346849478
  32     0.015687449709468
  33    -0.0034228309039597
  34    -0.022451924170953
  35    -0.0040743542760204
  36    9.5852800928264e-05
  37    0.00043525064018012
  38    0.00094687014287417
 Sym= A
 Ene=               3
 Spin= Alpha
 Occup=    2.00000
   1     -0.11774409384373
   2      0.27288664282461
   3      0.33093189247416
   4     -0.10781780518035
   5     -0.31041183350955
   6      0.46908608786821
   7    -0.074637815525109
   8      -0.2098054494019
   9      0.34604462631033
  10     0.014433281970128
  11    0.0069089720346759
  12     0.011916403769696
  13     0.008550894714401
  14    -0.0071436974217695
  15    0.0056565595821538
  16    -0.014946042670211
  17    -0.016715985821131
  18     0.033731228990806
  19     0.018102900675553
  20    -0.021891530877414
  21     0.035467815289306
  22     0.026966401515041
  23    -0.033783024219769
  24    -0.0029259663660307
  25    -0.010422540750812
  26    0.00070226039906572
  27    0.0022459166018139
  28    0.0071139355783214
  29    -0.022452982375605
  30    -0.0040757176889905
  31    -9.5961059282583e-05
  32    0.00085687506847942
  33    0.00059310008649328
  34    -0.048721590528995
  35    -0.049804225074283
  36    -0.0034403590090854
  37    -0.0060947041426962
  38     0.014855421294786
 Sym= A
 Ene=               4
 Spin= Alpha
 Occup=    2.00000
   1      -0.1130873051751
   2      0.25101955008461
   3      0.18054609211528
   4    -0.069023204205546
   5      0.42348663192553
   6      0.07488870255392
   7    -0.020065439048899
   8       0.2465005961174
   9     0.045293962194968
  10    -0.0094689193551171
  11    0.00035677306505927
  12    0.0088892935298067
  13    -0.022838106201597
  14    0.0013598875044636
  15    0.0038486873956157
  16    -0.011019538518353
  17    -0.029373816978193
  18     0.028301479201986
  19    -0.015231629309194
  20    -0.0060757774015015
  21     0.037879413540422
  22    -0.030294535358503
  23    -0.0041509824021552
  24    -0.0025834049911256
  25    -0.0010998059179445
  26    9.7679096562795e-05
  27     0.001893432143043
  28    -0.0088990219618657
  29    -0.0030539887376076
  30    -0.0057667864670735
  31    0.0020503829310085
  32    -0.0008387784203512
  33    0.00027897630558677
  34      0.30683087803762
  35      0.10983672643061
  36    0.0046956313670534
  37    -0.033708170162296
  38    -0.005155398137493
 Sym= A
 Ene=               5
 Spin= Alpha
 Occup=    2.00000
   1      0.00384868478708
   2    -0.011019537091327
   3    -0.029373817486388
   4    -0.028301481249437
   5    -0.0033385248676109
   6    -0.016055281688203
   7     -0.03787941558825
   8    0.0011726748433863
   9     -0.03055510868134
  10    -0.00038652976989056
  11    0.0089548045890476
  12    -0.00034961569106688
  13    0.0031617988088416
  14    -0.00046220301393164
  15     -0.11308724436584
  16        0.251019571139
  17      0.18054611310915
  18     0.069023210987557
  19    0.00021323664626066
  20      0.43005719032246
  21     0.020065444772277
  22    0.0018014246549295
  23      0.25062090248706
  24     0.026121156079441
  25    -0.0014011800945926
  26    0.0016429791352514
  27    -0.0022901663960953
  28    -0.00011521003078013
  29      0.30683087541701
  30      0.10983672282474
  31    -0.0046956311390515
  32    0.00077628450886044
  33     -0.03409129298335
  34    -0.003053985471384
  35    -0.0057667838035268
  36    -0.0020503831149687
  37    0.0004203901999683
  38    -0.00077759203110094
 Sym= A
 Ene=               6
 Spin= Alpha
 Occup=    2.00000
   1     -0.14600476612455
   2      0.34209428864034
   3      0.39485922787293
   4     -0.12967692616711
   5     -0.19441612939706
   6     -0.46285342091951
   7    -0.097204962161403
   8     -0.12295481114993
   9     -0.33417815416227
  10    0.0032678457684188
  11    -0.0079318323006716
  12     -0.01809368825584
  13    0.0038985246030095
  14    -0.0064936989281029
  15    0.0085740330442944
  16    -0.021339032748122
  17    -0.046282514957704
  18     0.035155186361299
  19     0.012532993318019
  20      0.01463733273597
  21     0.037713086936886
  22     0.018258930552396
  23     0.019694539210739
  24    -0.00013270234368653
  25     0.012804044284179
  26    -0.0003226202701901
  27    0.0029561020017981
  28    0.0047398274295357
  29     0.021836287289306
  30     0.030420924585734
  31    0.0022004199065403
  32    0.0006207422824639
  33    -0.00082682596098353
  34    -0.054877863493086
  35    -0.067096410885255
  36    -0.0038795442283329
  37    -0.0019053200414444
  38    -0.013860039617033
 Sym= A
 Ene=               7
 Spin= Alpha
 Occup=    2.00000
   1    0.0085738018904842
   2    -0.021338339769562
   3    -0.046281751422124
   4    -0.035153624963228
   5     0.012239793274228
   6      0.01488365349416
   7    -0.037711445937847
   8     0.016226482056623
   9     0.021400473756799
  10    -0.0025180581095317
  11    -0.0068909773617089
  12    0.0001630440163006
  13    0.0015787305564036
  14    -0.011786995381318
  15     -0.14600336264987
  16      0.34208145990992
  17      0.39484382495949
  18      0.12967191401865
  19     -0.42208565983562
  20     -0.27182576130619
  21     0.097201480749836
  22     -0.30776792968131
  23     -0.17910946904926
  24    -0.010119377424202
  25    0.0077721220939875
  26    -0.015368677526072
  27    -0.0038305978121999
  28    0.0066840853840803
  29    -0.054875616862744
  30    -0.067094103317537
  31    0.0038793845653377
  32     -0.01331934994499
  33    -0.0042829870383394
  34     0.021837340383884
  35     0.030421116757698
  36    -0.0022004245833494
  37    -0.00092207582389362
  38    0.00046768998522721
 Sym= A
 Ene=               8
 Spin= Alpha
 Occup=    2.00000
   1     0.057649258322724
   2     -0.11879150274335
   3    -0.069419268112138
   4     -0.40531175550473
   5    0.0079416435787249
   6    0.0053450106780312
   7     -0.25470176465114
   8    -0.012433640879923
   9    -0.0052158719968592
  10     0.016958263605997
  11    -0.0050758188586128
  12    0.00084445308737684
  13    -0.035523776337579
  14    -0.014303078953571
  15     0.057649131857805
  16     -0.11879150397356
  17    -0.069419265107404
  18      0.40531175594186
  19    0.0038847919772738
  20    0.0087491441185244
  21      0.25470176392129
  22    -0.0029775261033296
  23    -0.013150470771194
  24     0.022374854686092
  25     0.014967190604891
  26    -0.00025838998611447
  27    -0.032396506027926
  28    0.0025150014383282
  29     0.029023314837625
  30     0.051868383951874
  31     0.009079193017368
  32    0.00060941091708758
  33    0.0011371108664856
  34     0.029023313100271
  35     0.051868382810339
  36    -0.0090791929361399
  37    0.0010140129577791
  38    0.00079760878534038
 Sym= A
 Ene=               9
 Spin= Alpha
 Occup=    0.00000
   1    0.0038016198874323
   2      -1.5680953672931
   3       3.3615018013638
   4    -0.014320881701924
   5      -0.1085700688854
   6      0.30469914890856
   7      0.87799336073361
   8       1.0013102901203
   9      -0.2190615119148
  10     -0.48629833241734
  11    -0.068207913868518
  12       0.1222893855215
  13      0.28593304587637
  14     -0.25571303030573
  15     0.049475810150339
  16      0.15495819139647
  17      -1.2251964088465
  18      0.16862626967979
  19     -0.01152880468482
  20     0.016001839974324
  21       1.0064563955611
  22    -0.055204156728088
  23     0.091488502339601
  24      0.15079652579501
  25    -0.012313211982321
  26    5.8210379594087e-05
  27     -0.28237760898904
  28     0.033398362147447
  29     0.030510649091246
  30    -0.088435725299676
  31     -0.03660326824804
  32    0.0030971584524198
  33     0.030295962527192
  34     -0.68892791490825
  35     -0.89896621325446
  36    -0.038296063898996
  37      0.19636009625914
  38     0.064102929905575
 Sym= A
 Ene=              10
 Spin= Alpha
 Occup=    0.00000
   1     0.025525259684554
   2      0.12107334417832
   3     -0.70886936776883
   4    -0.067784526535141
   5    0.0099938155767077
   6    -0.016602058468198
   7     -0.60864524696471
   8     0.042463635787697
   9    -0.089669324144613
  10     0.097266612383996
  11     -0.05864643399837
  12    -0.0044340885293918
  13     -0.14790503671156
  14     0.012620748967021
  15    0.0057745702440007
  16      -1.5340356480882
  17        3.306861528447
  18      -0.1802275673178
  19      0.16344750111451
  20     -0.10213015141164
  21     -0.16761767202914
  22     -0.20128814315236
  23       1.3883376459421
  24      0.46826751412909
  25      0.27265517774359
  26    -0.011263704804746
  27      0.26396602882647
  28     0.038537395888664
  29      -1.0165752984546
  30      -1.2291184544514
  31     0.049610580888873
  32     0.018581509952142
  33      0.35554210315913
  34     0.028736052077227
  35    -0.032492012421795
  36      0.02309207661334
  37      0.01437031612937
  38    0.0088820993855016
 Sym= A
 Ene=              11
 Spin= Alpha
 Occup=    0.00000
   1    -0.014986996008163
   2      0.29938146668823
   3      -0.5268162448314
   4      -0.5460322005874
   5    -0.011901432771482
   6      0.33119674527856
   7       1.5480835048886
   8     -0.90612855800906
   9     -0.57144007471021
  10     -0.01739179882623
  11    -0.059526855898926
  12     -0.12158343684855
  13       0.9850064173579
  14      0.14480558303612
  15     0.040845754834785
  16     0.043749272323432
  17      -0.9223717606971
  18      0.18174252648582
  19     0.011538531485589
  20     0.021499715938304
  21      0.69416799702264
  22     0.057218507470071
  23      0.15997984470065
  24      0.12574665852501
  25    -0.037273457647006
  26    0.00043122600233233
  27     -0.20198704451369
  28    -0.040781910852198
  29    -0.013674067175617
  30     -0.11396642602879
  31    -0.017895507549477
  32    -0.0041897453736338
  33     0.026908121556995
  34      0.75800129575726
  35      0.88057562604458
  36    -0.0098402664637565
  37     -0.34282675984095
  38    -0.037786868700486
 Sym= A
 Ene=              12
 Spin= Alpha
 Occup=    0.00000
   1    -0.010938156224008
   2    -0.024857506901689
   3      0.24266883889512
   4     0.029362938107303
   5    -0.018185076648253
   6     0.016355680765158
   7      0.20363683192524
   8    -0.064173566802692
   9      0.10351764870086
  10    0.0045171777287449
  11     0.035543389599337
  12    -0.0009519876995751
  13     0.028187961484246
  14    0.0045726391656375
  15    -0.0012762340957597
  16     0.059817048647173
  17      0.22908212205955
  18      0.04183711682022
  19    -0.011807329333356
  20    -0.055145541507819
  21      0.32479190621455
  22    -0.048759792087156
  23    -0.0036850691723508
  24     -0.16795081211597
  25      0.06623088167808
  26     -0.04029838326621
  27    -0.032139357882088
  28    -0.006316552064825
  29       1.0662476735202
  30      -1.5038321968941
  31     -0.45212155175009
  32      0.19431684431786
  33       0.1946171861022
  34     0.010874344822537
  35      0.18054595916507
  36     0.011091654855702
  37    -0.019336262909695
  38    -0.004598946420936
 Sym= A
 Ene=              13
 Spin= Alpha
 Occup=    0.00000
   1    -0.0022233537047409
   2     0.063372781764025
   3      0.24173673345728
   4     -0.04327149221392
   5    -0.044436038518932
   6    -0.019675956164805
   7     -0.32685394422837
   8       0.0140801870349
   9    -0.046660852310621
  10     0.088349335221629
  11    -0.0056800020673946
  12    -0.090718201457503
  13      0.11191067326471
  14    -0.068296834209323
  15    -0.010947726646665
  16    -0.025119257048804
  17      0.24299813384381
  18    -0.029322055937766
  19     0.018985078664685
  20     -0.01509874604418
  21     -0.20396677419531
  22      0.11263909386489
  23     -0.04548648952759
  24    -0.026127405564492
  25    -0.010621243713894
  26    0.0052567973301794
  27      0.01076509931994
  28    -0.033885857416148
  29     0.010762507974519
  30      0.18092372040322
  31    -0.010992633974403
  32    -0.0011742541794552
  33    -0.019872443791971
  34       1.0542765653956
  35      -1.5108605676142
  36      0.44875618676516
  37      0.17971069177497
  38      0.22721265602963
 Sym= A
 Ene=              14
 Spin= Alpha
 Occup=    0.00000
   1     0.088457765818378
   2     -0.41926959783506
   3     -0.34606346643833
   4       0.1367014008313
   5      -0.6014382297773
   6     -0.10533627228428
   7     0.052564974395615
   8     -0.39010258841588
   9    -0.071806004358783
  10       0.0427718634226
  11    0.0032017940100928
  12    -0.029067375825055
  13     0.074793262989134
  14     0.016602757990276
  15    0.0050466071052199
  16    -0.031329826841619
  17    -0.0087766203835085
  18    0.00053829676037798
  19     0.013664491107764
  20     0.015809612191098
  21    -0.019462685563063
  22     0.028606175013989
  23     0.006199783077189
  24    -0.0012341962013122
  25    -0.0014843139916398
  26     0.001642038685999
  27    -0.0047295344634435
  28    -0.0031828569855447
  29    -0.024741592055702
  30    -0.0024297550207467
  31    -0.0019694124682091
  32    -0.00016479234020826
  33    -0.0022728286355389
  34      0.88514092092865
  35      0.55370594900148
  36     0.018001085477364
  37    -0.077360879047701
  38    -0.011285182285604
 Sym= A
 Ene=              15
 Spin= Alpha
 Occup=    0.00000
   1    -0.015140321186022
   2    -0.051835158228035
   3      0.37432994523755
   4     0.044207265048792
   5    -0.010431213618867
   6    -0.040387910882044
   7      0.33733724706634
   8    -0.096129467596321
   9     -0.30012879598356
  10    -0.032158862323855
  11     -0.14979987159358
  12     -0.01017735426943
  13     0.075638888266352
  14    -0.006798902638373
  15    -0.036741009539537
  16      0.35776497460713
  17     -0.19373913869521
  18    -0.015679054783369
  19      -0.2161493979287
  20     -0.75702145639833
  21      0.45027184629987
  22      0.26449094541493
  23       1.4266097316401
  24      0.16281163434693
  25     -0.40512248487778
  26      0.01057752134539
  27     -0.09432522702051
  28     0.024637413412637
  29     -0.39543973291533
  30      -0.5029504641001
  31     0.076803379920783
  32    -0.026035364900228
  33     0.025796642137511
  34     0.017083213870896
  35     0.094574462435331
  36    -0.018177853164793
  37    -0.022976734899736
  38      0.02012045576389
 Sym= A
 Ene=              16
 Spin= Alpha
 Occup=    0.00000
   1    -0.021311483503959
   2     -0.10655169328939
   3      0.93501742684159
   4     0.069861244999746
   5    0.0023548901522916
   6    0.0054781772670928
   7       0.6905079597719
   8      0.01873079460258
   9     0.060192721428734
  10    -0.065770825617707
  11       0.0377836067547
  12    0.0074734101210726
  13     0.071200836461925
  14     0.048606432790323
  15     0.025527581181119
  16      0.35430581917063
  17      -1.1529723381547
  18     -0.67861044150126
  19     -0.17611726163592
  20      0.11280895801655
  21       1.5217244795972
  22       0.1860425428797
  23     -0.32094795621721
  24     -0.16305830785203
  25     0.072747904587843
  26     0.026575490968813
  27      0.19301230887316
  28      0.44317313368461
  29      0.25491131142829
  30     0.031037413606376
  31     -0.15951428092445
  32    -0.036375469166227
  33    -0.046939021356298
  34    -0.071395927896964
  35      0.14036362406375
  36    -0.023499343587593
  37    -0.0094296101323162
  38    -0.0042580477506811
 Sym= A
 Ene=              17
 Spin= Alpha
 Occup=    0.00000
   1    -0.00055441699121977
   2    -0.020259747102076
   3     0.018000655252064
   4    -0.0048094665510987
   5    0.0014492259803938
   6    -0.019031550917815
   7     0.022518246360956
   8    -0.0093258339369946
   9    -0.026940498309232
  10    -0.0067088618749061
  11    -0.023274527528189
  12    0.00044565154422868
  13     0.012284488404129
  14    0.0020210770666555
  15    -0.063515139525223
  16      0.23573059188899
  17      0.86146668470312
  18     0.090026867073997
  19    0.0010665579698864
  20       0.5315574605657
  21      0.11804028817721
  22    0.00075754690937979
  23      0.63407855419119
  24        0.460530116308
  25      0.11596161593539
  26    0.0023094297279621
  27    0.0024283279039647
  28    0.00056627436788063
  29     -0.76776270264143
  30     -0.51375885752135
  31       0.3121088529943
  32    -0.011990324295284
  33       1.4438991444079
  34    -0.0089219509975852
  35     0.030305398134709
  36    -0.0067456987714478
  37    -0.0020043655791868
  38    -0.0012337045841292
 Sym= A
 Ene=              18
 Spin= Alpha
 Occup=    0.00000
   1     0.032874288129343
   2      0.11721915638903
   3     -0.94017221032752
   4     -0.12585271977622
   5     0.018208627958799
   6    -0.0058963572839723
   7     -0.77753412484093
   8     -0.10284818600561
   9    0.0075555532991692
  10      0.11796853347519
  11    -0.023412114692682
  12    -0.0068858540880119
  13     -0.16832986356527
  14     -0.03253454389776
  15    0.0070452223815217
  16     -0.72274424148822
  17       1.4236009936951
  18      0.28605643002876
  19     -0.72241531069116
  20      0.15195709373195
  21      -1.1646543976848
  22      0.89043957944244
  23     -0.19514347619281
  24     -0.18692175702662
  25     -0.27715476585328
  26      0.04405694043563
  27       0.2643616932135
  28       0.2460642453771
  29      0.02191940694447
  30     0.034707833545074
  31      0.11183753823269
  32    -0.092821219997585
  33    -0.049705807497774
  34     0.086601232748496
  35     -0.23797968395275
  36    -0.00074101885929948
  37     0.022880630529527
  38    0.0024587966622455
 Sym= A
 Ene=              19
 Spin= Alpha
 Occup=    0.00000
   1    -0.063458806853314
   2       0.2356488710699
   3      0.85201965237846
   4    -0.091709798983791
   5      0.52479793772489
   6     0.094718225409051
   7     -0.12027548269764
   8      0.62308212269135
   9      0.11400349268817
  10     -0.21253601494035
  11    -0.022161765793755
  12      0.14298318241678
  13     -0.38690016033029
  14      -0.1202345660374
  15    -0.00040513809546405
  16    -0.018747077575624
  17     0.015448739287164
  18    0.0044952995116981
  19     -0.01923406127905
  20    -0.0014716793460356
  21    -0.018780763868426
  22    -0.029045554299516
  23    -0.013377236535907
  24    -0.0068161812720933
  25    0.0023866636917776
  26    0.00019756432814076
  27     0.012477220786762
  28     0.023302409021802
  29    -0.0087235020850675
  30      0.02531314167522
  31    0.0067269449785648
  32    -0.00060959132668767
  33    -0.0017829243964187
  34     -0.79890856664913
  35     -0.47150921277724
  36      -0.2856001384558
  37       1.4295389322117
  38      0.22538567668805
 Sym= A
 Ene=              20
 Spin= Alpha
 Occup=    0.00000
   1    0.0063321776753644
   2     -0.72672685941661
   3       1.4438772534687
   4     -0.29509811392856
   5      0.26812437620902
   6     -0.68717425260782
   7       1.1797581053809
   8     -0.32720120261775
   9      0.84790248106157
  10     -0.12304601867067
  11     -0.19046766390474
  12     0.031594700796817
  13      0.29083907861133
  14      0.31080260029787
  15     0.032931093078007
  16      0.11833509426339
  17     -0.94858126430427
  18      0.12589660097725
  19    -0.0090900039669458
  20     0.016790675971581
  21      0.78348247043463
  22     0.023176133507546
  23      -0.1014965914117
  24       0.0853592131564
  25     0.036894693232309
  26    -0.00031334600057265
  27     -0.18714354944587
  28     0.018212473566797
  29      0.08766739636415
  30     -0.23929837599123
  31    0.00068341481457114
  32    -0.0014288717584274
  33     0.022914207267692
  34     0.010298225386902
  35     0.026325435885998
  36     -0.11366056702939
  37    -0.029470138399866
  38     -0.09919069453971
 Sym= A
 Ene=              21
 Spin= Alpha
 Occup=    0.00000
   1     0.032810919283172
   2     -0.28739685715464
   3     0.086480458061803
   4      0.18259302817002
   5      0.12276451856043
   6      0.30532529529169
   7      -0.1703969774993
   8     -0.28685725355089
   9     -0.39951681604516
  10      0.16189561323563
  11      0.20827681991657
  12    -0.011788885368276
  13     0.033729892723678
  14      0.95420836164649
  15    -0.001172663772454
  16     0.010205354541994
  17     0.038904656923357
  18     -0.01364140073329
  19    -0.034923086738793
  20    -0.0039005422026396
  21     -0.01853995049889
  22     -0.09067188720554
  23     0.051229334111866
  24    -0.0050257984021786
  25    0.0022190437454711
  26    -0.0033853941080603
  27    0.0066388722169214
  28      0.10141426763421
  29    -0.012734045890882
  30     0.016715272783426
  31    -0.012371617109555
  32     0.010619253239059
  33    0.0019350223818006
  34      0.25720353334914
  35     0.068418099580853
  36     -0.14881384755383
  37     -0.13647027169326
  38    -0.0018424622806137
 Sym= A
 Ene=              22
 Spin= Alpha
 Occup=    0.00000
   1    0.0010847374785041
   2    -0.011161787777815
   3    -0.032451488391693
   4    -0.013613413934512
   5    -0.0014344876065099
   6     0.035071238705111
   7    -0.014980593910932
   8    -0.061976838660239
   9     0.080950888696016
  10    0.0038380815158329
  11      0.10038044771128
  12     0.003755012303459
  13    -0.007718613721136
  14    -0.012578606718395
  15    -0.032594297646386
  16      0.28824315353482
  17    -0.091834799215856
  18      0.17704300043721
  19     -0.28180449548132
  20     -0.17244711198462
  21     -0.16020308365939
  22      0.34529944647994
  23      0.34880408015533
  24      0.10397599323969
  25      0.97483399441452
  26    -0.042232094585247
  27      0.12487666132948
  28     0.062024775370777
  29     -0.25524989737392
  30    -0.068231268825413
  31     -0.14972016366572
  32    -0.022846831603379
  33      0.13426059604669
  34     0.010608179167439
  35    -0.016529974742263
  36    -0.013037243785583
  37    0.0001752085073961
  38    -0.010699196486945
 Sym= A
 Ene=              23
 Spin= Alpha
 Occup=    0.00000
   1    -0.0011570867869817
   2    -0.0021524404176291
   3    -0.039924770568553
   4    -3.9502485812474e-05
   5     0.039461158041961
   6    -0.086692755753964
   7     0.036089910499054
   8       0.0531415822322
   9     -0.23201572279736
  10    -0.091924124539397
  11     0.026436818128409
  12     -0.19483494632325
  13    -0.069569039159504
  14    -0.015023521462649
  15    0.0020160443246266
  16    0.0061263632327053
  17    -0.040244044022375
  18    0.0029948493984973
  19    -0.0052553343940728
  20     0.010077792278755
  21     0.038876645933354
  22    -0.034558913627145
  23     0.049899894778356
  24    0.0074736270103482
  25    -0.015100933973398
  26    0.0039531208221657
  27    0.0013778404740363
  28    0.0088831373889308
  29    -0.0060502083740547
  30    -0.033640562724387
  31    -0.0046613606884681
  32    -0.00021501806505321
  33     0.003960002403243
  34     -0.25086121995365
  35      0.31206874920642
  36    0.0017286544996337
  37     -0.17819456558713
  38       1.0742386232158
 Sym= A
 Ene=              24
 Spin= Alpha
 Occup=    0.00000
   1    0.0020334152354986
   2    0.0062583152708506
   3    -0.040705107957393
   4    -0.0030250389939801
   5     0.010837643074939
   6    -0.0033038862143097
   7    -0.039250027884348
   8     0.055264019680309
   9    -0.025178656425233
  10    -0.0033157230034549
  11    -0.0060099711405354
  12    0.0061666706506683
  13    -0.005030346499244
  14     0.016399506544399
  15    -0.00067766372691731
  16    -0.0040367633780599
  17    -0.046431482870028
  18    -0.00078886919955094
  19    -0.092233765110702
  20     0.019819177055243
  21      -0.0376617162642
  22     -0.23770681421498
  23    0.0072928416718996
  24     0.039201136178024
  25    0.0089366690820541
  26     -0.22221338616688
  27    0.0080412029605463
  28    -0.028644283679475
  29     -0.24562948965156
  30      0.31681728481569
  31    -0.0021211006212984
  32       1.0888862975866
  33    -0.0003359824362427
  34    -0.0060094465944774
  35    -0.033978183223323
  36    0.0046897269007778
  37    0.0039713721517069
  38    0.0004798063003626
 Sym= A
 Ene=              25
 Spin= Alpha
 Occup=    0.00000
   1     0.047779164642494
   2     0.056935307623768
   3     -0.94966244653967
   4     -0.20175000272476
   5    0.0049239944943338