[Molden Format]
made by pyscf v[2.0.1]
[Atoms] (AU)
O   1   8     0.00000000000000     0.00000000000000     0.00000000000000
O   2   8     2.75227162082039     0.00000000000000     0.00000000000000
H   3   1     3.06432366844540     0.00000000000000     1.80733789576484
H   4   1    -0.31205204762501     0.31384093202795    -1.77988037206198
[GTO]
1 0
 s    6 1.00
             5484.6717   0.001831099805527
             825.23495   0.013950098518422
             188.04696    0.06844509273075
               52.9645    0.23271427528445
              16.89757    0.47019295006289
             5.7996353    0.35852086192309
 s    3 1.00
             15.539616   -0.11077750382508
             3.5999336   -0.14802630511126
             1.0137618     1.1307670390447
 s    1 1.00
             0.2700058                   1
 p    3 1.00
             15.539616   0.070874299543311
             3.5999336    0.33975279781076
             1.0137618    0.72715859531445
 p    1 1.00
             0.2700058                   1
 d    1 1.00
                   0.8                   1

2 0
 s    6 1.00
             5484.6717   0.001831099805527
             825.23495   0.013950098518422
             188.04696    0.06844509273075
               52.9645    0.23271427528445
              16.89757    0.47019295006289
             5.7996353    0.35852086192309
 s    3 1.00
             15.539616   -0.11077750382508
             3.5999336   -0.14802630511126
             1.0137618     1.1307670390447
 s    1 1.00
             0.2700058                   1
 p    3 1.00
             15.539616   0.070874299543311
             3.5999336    0.33975279781076
             1.0137618    0.72715859531445
 p    1 1.00
             0.2700058                   1
 d    1 1.00
                   0.8                   1

3 0
 s    3 1.00
             18.731137    0.03349459952309
             2.8253937    0.23472694665786
             0.6401217    0.81375731841339
 s    1 1.00
             0.1612778                   1
 p    1 1.00
                   1.1                   1

4 0
 s    3 1.00
             18.731137    0.03349459952309
             2.8253937    0.23472694665786
             0.6401217    0.81375731841339
 s    1 1.00
             0.1612778                   1
 p    1 1.00
                   1.1                   1

[5d]
[7f]
[9g]

[MO]
 Sym= A
 Ene=               0
 Spin= Alpha
 Occup=    2.00000
   1    -2.534260602326e-05
   2    -0.00039236597743027
   3    0.0025361657403623
   4    0.00028147956265997
   5    1.3686983207751e-05
   6    -1.2551799356383e-05
   7    0.0018701221904481
   8    1.0356126286447e-05
   9    5.1959493575682e-05
  10    8.2347075284329e-06
  11    9.5149081777934e-05
  12    -3.1223514471014e-05
  13    9.5773542083909e-05
  14    -6.8003102940968e-06
  15      0.99583319236059
  16     0.021993854008452
  17    -0.007907162324521
  18    -0.001065484411597
  19    -8.9838802491316e-05
  20    0.0016959188850927
  21    0.0024656061982603
  22    -9.0398378708314e-05
  23    -0.00086178474539343
  24    0.00070210469562455
  25    0.00014716358295537
  26    -4.0311956414314e-07
  27    -0.00073097629820501
  28    3.3170845149934e-06
  29    -0.00033974840029419
  30    0.0013649986852401
  31    2.9930482490871e-05
  32    -2.4697175065085e-06
  33    0.0011710687002173
  34    -0.00040377509520892
  35    0.00043750192613983
  36    2.8724035303697e-05
  37    3.3956796764322e-06
  38    -2.5331258296622e-05
 Sym= A
 Ene=               1
 Spin= Alpha
 Occup=    2.00000
   1      0.99583133931593
   2     0.021998149816703
   3    -0.0079020421105323
   4    0.0010637967765069
   5    0.00020686143581014
   6    -0.0016820048935425
   7    -0.0024668007744073
   8    -0.00023802452890832
   9    0.00083554919266923
  10    0.00068943253087357
  11    0.00014446390951702
  12    -8.2571578739377e-05
  13    -0.0007382836553871
  14    -2.8820201539989e-05
  15    -2.5256525873213e-05
  16    -0.0003926259690222
  17    0.0025358942405098
  18    -0.00028096023586758
  19    1.1258079811155e-05
  20    1.4506175225893e-05
  21    -0.0018695644047414
  22    1.9154342806243e-05
  23    -4.9660501200064e-05
  24     1.45643840412e-05
  25    9.4800918289107e-05
  26    1.0524031804391e-05
  27    9.9480187636191e-05
  28    -9.8419789297565e-06
  29    -0.00040399327383027
  30    0.00043745462543644
  31    -2.8707423106974e-05
  32    -1.0564661569793e-06
  33    2.5545902838577e-05
  34    -0.00034048558065227
  35    0.0013642520731197
  36    -2.998312182193e-05
  37    0.00020095944795149
  38    -0.0011536523250739
 Sym= A
 Ene=               2
 Spin= Alpha
 Occup=    2.00000
   1    -0.00049795852603112
   2    0.00096039629516693
   3    0.0048019430099462
   4    0.00080995900267177
   5     -0.03499850447774
   6    -0.0021696294612007
   7    0.00084871494157751
   8    -0.055003643144856
   9    -0.0043550150669898
  10    9.2031629977095e-05
  11    -0.00017270710554334
  12    0.0015708061230075
  13    4.3455534314665e-05
  14     0.014290015302111
  15    0.0056919233794793
  16    -0.013637703798352
  17    -0.014436824465771
  18    -0.0047451533302716
  19       0.6687257102526
  20     0.010388566627856
  21    -0.004267457353281
  22      0.48556181453635
  23    0.0058611330971388
  24    -3.7940738185017e-05
  25    -3.1170217909097e-06
  26     0.020172597662741
  27    -0.00024123254216131
  28    -0.0085185447470743
  29    0.0023108870960101
  30    0.0033811251522091
  31    -3.923135111446e-05
  32      0.02102154031613
  33    5.8445072263663e-05
  34    -0.0050612927994439
  35    -0.0053776576877428
  36    0.00017607296644864
  37    -0.0014643509213039
  38    -0.0004953340269254
 Sym= A
 Ene=               3
 Spin= Alpha
 Occup=    2.00000
   1    0.0056904897354165
   2    -0.013638875414761
   3    -0.014438151674647
   4     0.004745580926169
   5      0.66037033222505
   6      0.10589133969486
   7    0.0042677675415938
   8      0.47920288760138
   9     0.078544208063493
  10    -0.0060049824868009
  11    0.0014761314546468
  12    -0.018903561301523
  13    -0.0036863072446329
  14    0.0083896739406548
  15    -0.00049798539192952
  16    0.00096046484936047
  17    0.0048020146859957
  18    -0.00081008065725412
  19    -0.034843563503107
  20    -0.0039407112887392
  21    -0.00084884805413998
  22    -0.054924269166148
  23    -0.0052623643745068
  24    -0.00037852398546244
  25    -0.0026514976210435
  26    -0.0015107670417732
  27    -0.0002282347268586
  28     -0.01404293023742
  29    -0.0050612422403284
  30    -0.0053776499659838
  31    -0.00017607692854819
  32    -0.0015281184676462
  33    0.00023352484724263
  34    0.0023110814359445
  35    0.0033813199921031
  36    3.9244878098502e-05
  37      0.02071232498478
  38    0.0035927849409945
 Sym= A
 Ene=               4
 Spin= Alpha
 Occup=    2.00000
   1      0.11501611402463
   2     -0.25763248709662
   3     -0.18554339542118
   4     0.069966606535605
   5    -0.074875750069351
   6      0.42047734658628
   7     0.024622752607076
   8    -0.044168791170421
   9      0.24894725238279
  10    -0.023669137055897
  11    0.0021266483272651
  12    0.0071390047378213
  13    0.0028744053316005
  14    -0.00020738286457749
  15    -0.0042632107668764
  16    0.0095957662742038
  17     0.045788102492049
  18    -0.026566561449684
  19    0.0025905351229835
  20    -0.0073074065066361
  21    -0.035618903880018
  22    0.0053241354105003
  23    -0.016533195694731
  24    7.557558634569e-05
  25    -0.010941925265254
  26    0.00049551699195213
  27    -0.0031625474367069
  28     0.001566261373685
  29    -0.017061792619289
  30    -0.017595472296057
  31    -0.0010457822359484
  32    0.00012309877998885
  33    0.00051185034157939
  34     -0.30431909665813
  35      -0.1007841206841
  36    -0.0048176154341948
  37    0.0059608905426604
  38     -0.03388063753018
 Sym= A
 Ene=               5
 Spin= Alpha
 Occup=    2.00000
   1    0.0042632210538017
   2    -0.0095957531293848
   3    -0.045788090431785
   4    -0.026566565336935
   5    -0.0012822543150098
   6    -0.0076462339403657
   7    -0.035618906975712
   8    -0.0023722857280155
   9    -0.017206545544314
  10    -7.9723588510077e-06
  11     0.011047671074514
  12    -5.2808690906193e-05
  13    0.0032015782466176
  14    -0.00035757891878107
  15     -0.11501612675204
  16      0.25763250213864
  17      0.18554341247401
  18     0.069966611620466
  19    0.00072309625259109
  20      0.42709137566159
  21     0.024622757040713
  22    0.00026853247916757
  23      0.25283500577281
  24     0.024788190409959
  25    -0.0021303510119817
  26    0.00018926817134636
  27    -0.0022283191136787
  28    0.00016505616646795
  29      0.30431909391333
  30      0.10078411804684
  31    -0.0048176152495358
  32    1.2979803930033e-05
  33    -0.034401012469239
  34     0.017061797339942
  35     0.017595472902098
  36    -0.0010457822264523
  37    -0.00021011045014765
  38    0.00048269913673103
 Sym= A
 Ene=               6
 Spin= Alpha
 Occup=    2.00000
   1     -0.18600711100241
   2      0.43123922858729
   3      0.51330001181173
   4      -0.1679501662611
   5    -0.042978713510601
   6      0.35304126139853
   7     -0.11914169467161
   8    -0.027535725987936
   9      0.23924641125561
  10    -0.011208106517875
  11     0.010873505979769
  12    0.0043696516989561
  13    -0.0054160545305387
  14    -0.0014847291075395
  15    0.0092325379544436
  16    -0.025683137539132
  17    -0.027950223579945
  18     0.050708346476824
  19     0.002733406035631
  20    -0.021362472065807
  21     0.054962583012513
  22    0.0039836577372456
  23    -0.027129548138794
  24    -0.004443486890961
  25    -0.0078527757292831
  26      0.00038155700006
  27    0.0027458063517875
  28    0.0010497560664179
  29    -0.020282575433155
  30    -0.0035908994262918
  31    0.0016525172334697
  32    0.00011610028183221
  33    0.00088082473584491
  34    -0.073751842819225
  35    -0.075109960386003
  36    -0.0052252284471623
  37    -0.00022965741546448
  38    0.0047233159959036
 Sym= A
 Ene=               7
 Spin= Alpha
 Occup=    2.00000
   1    0.0092325297437542
   2    -0.025683142224523
   3    -0.027950210703385
   4    -0.050708335796265
   5    -0.0010175899768947
   6     0.021512572090551
   7    -0.054962558995179
   8    -0.00078772067712147
   9     0.027409148387631
  10    -0.0044272256497465
  11    -0.0079157620661184
  12    0.0004880413512413
  13     0.002755196244699
  14    0.00032977484517518
  15     -0.18599713042386
  16      0.43123947840997
  17      0.51329996450213
  18      0.16795015713548
  19     0.018977453089274
  20     -0.35514097152877
  21       0.1191417244657
  22     0.014426037516057
  23     -0.24039328140363
  24    -0.011854000549494
  25      0.01096613512689
  26    0.00013983790603384
  27    -0.0057889709629881
  28    -0.00042596933913326
  29    -0.073751862874798
  30     -0.07510995968238
  31    0.0052252288439402
  32    0.00059397186094731
  33    -0.0046914250394711
  34    -0.020282561254267
  35    -0.0035908800098803
  36    -0.0016525170454798
  37    0.00026729356350539
  38    -0.00084728089743535
 Sym= A
 Ene=               8
 Spin= Alpha
 Occup=    2.00000
   1     0.057229843049589
   2     -0.11823398656778
   3     -0.06578734933055
   4     -0.40550917492216
   5    0.0017680727864429
   6    -0.0060413535350774
   7      -0.2561897675931
   8     -0.00161825155357
   9    0.0057837982488639
  10     0.021066978706669
  11     0.011930168738909
  12    -0.00091022895102442
  13    -0.033191604782634
  14    -0.0025826944674347
  15     0.057229867878311
  16      -0.1182339754634
  17    -0.065787337785926
  18      0.40550917743366
  19    0.00069215719807265
  20     0.006256590373142
  21      0.25618976888567
  22    -0.00058930881271838
  23    -0.0059769385673927
  24     0.021250477095108
  25     0.012197403222653
  26    0.00029143484981124
  27    -0.033085662176551
  28    0.00047180557319092
  29     0.024180354762992
  30     0.049944246559341
  31    0.0086875730847388
  32    5.9627789191492e-05
  33    0.0011170047270739
  34     0.024180354070954
  35     0.049944247325143
  36    -0.0086875730406689
  37    0.00025268730510501
  38    -0.0010896810135674
 Sym= A
 Ene=               9
 Spin= Alpha
 Occup=    0.00000
   1    -0.021887298491859
   2      -1.3167252035424
   3       3.2527383969182
   4    -0.057857561597933
   5    -0.011586989785127
   6      0.43319831241894
   7      0.56857686100094
   8      0.23833909573175
   9      -1.8194762844872
  10      0.39643735648572
  11       0.1846659021777
  12     -0.17307896371447
  13      0.32178051821513
  14    -0.088547823829981
  15     0.034199069991751
  16      0.12141877471591
  17     -0.94803977998976
  18      0.10012402779516
  19    -0.0019886888918762
  20     0.024135969319322
  21      0.72228805347797
  22    -0.0069076767631946
  23      0.14488346284438
  24     0.088169620127453
  25    -0.087837606689839
  26    -0.0014425015277117
  27     -0.18288664293945
  28    0.0045445658766387
  29     0.044019822649994
  30     0.035456441245463
  31    -0.058784328263133
  32    -0.001374537891063
  33    -0.0025338133970184
  34      -1.0941282681551
  35        -1.25606319896
  36    -0.091840203872377
  37     0.063769326211414
  38     -0.31959397009427
 Sym= A
 Ene=              10
 Spin= Alpha
 Occup=    0.00000
   1     0.024705838727094
   2      0.10680118679906
   3     -0.72425042379892
   4    -0.059736011701321
   5    -0.00034494216329298
   6    -0.023655213101773
   7     -0.55602956737296
   8    -0.0019821859317452
   9     -0.14136129725561
  10     0.061408540148707
  11    -0.095362859144279
  12    0.0067029567195983
  13     -0.13367271564463
  14    0.0013792903390358
  15     -0.01576751053445
  16      -1.3168570002145
  17       3.1748201556754
  18    -0.054921792332623
  19     0.013480455538478
  20     -0.38284666391833
  21     -0.24761596763687
  22    -0.017015179210753
  23       1.8678748566533
  24      0.56986503023733
  25      0.16430555830413
  26    -0.0058401433847841
  27      0.22184643702943
  28     0.016383452814166
  29        -1.16226661149
  30      -1.3346292902027
  31     0.093941428633961
  32    0.0022308142328163
  33      0.36947653561896
  34     0.039246632478476
  35     0.054491679731529
  36      0.05469610069421
  37    -0.0011512219769882
  38    0.0078570990159529
 Sym= A
 Ene=              11
 Spin= Alpha
 Occup=    0.00000
   1    -0.036555183452563
   2     0.098036559725857
   3      0.34999098423019
   4     -0.76410249735143
   5     0.028106190651098
   6     0.018028053380818
   7       1.5142966057624
   8    -0.044478469434826
   9     0.056026232727701
  10      0.20442810350092
  11      0.34064544189334
  12    -0.013647794305748
  13     -0.13290831851683
  14    0.0037539562104314
  15     0.016086475952369
  16     0.076978679244446
  17     -0.78457635086481
  18     0.059324110752059
  19    0.0011589406883211
  20    -0.0067561368252147
  21       0.5542408504828
  22    0.0040754566971044
  23    -0.025670093526944
  24    0.0082602845002864
  25     0.042383204686929
  26    0.0010997096507799
  27    -0.062008916931894
  28    -0.0014721182567476
  29      0.05908788083115
  30     -0.12899580407623
  31     -0.01403365734936
  32    -0.0003104232796333
  33    0.0041761801392894
  34     -0.12461543606038
  35      0.26869960495955
  36    -0.079996496507216
  37     0.019473397487483
  38    -0.052641683431021
 Sym= A
 Ene=              12
 Spin= Alpha
 Occup=    0.00000
   1    -0.013882383102139
   2    -0.021936326616078
   3      0.28906424786845
   4     0.026417677928115
   5    -0.0013249640707743
   6     0.027893304848032
   7      0.19086359763548
   8    -0.0066423663033467
   9      0.16425748994664
  10    -0.0061186578926551
  11     0.033566759036062
  12    0.0024654734518204
  13     0.017847047087086
  14    0.00087497328608035
  15    0.00012705532904146
  16     0.048665325289197
  17      0.22383528423971
  18      0.03837110875182
  19    -0.0017694808143153
  20    -0.077258620864082
  21      0.30482569367649
  22    -0.0060742094487331
  23    -0.025482626817715
  24     -0.19006831204408
  25     0.055669542083643
  26    -0.0052391728911464
  27    -0.034298314721966
  28    -0.00094986351867365
  29       1.1216727514831
  30      -1.5220215454524
  31     -0.42891097812651
  32     0.027153253779266
  33      0.13812971302476
  34     0.024772048443211
  35     0.086348658989808
  36    0.0003550948203433
  37    -0.0027913674487025
  38    0.0082881085935077
 Sym= A
 Ene=              13
 Spin= Alpha
 Occup=    0.00000
   1     -0.00043761730945
   2     0.050872568790766
   3      0.23102490338912
   4    -0.039411479723055
   5    -0.013960684803191
   6     0.071096975585516
   7     -0.30669359790361
   8    -0.0084989755584555
   9     0.018671516555388
  10     -0.17531064714621
  11     0.056761711983862
  12     0.065003995094692
  13    -0.028090899455544
  14    -0.0091583034041256
  15    -0.013875385644516
  16    -0.021988087944123
  17      0.28908372243299
  18    -0.026478471772345
  19    0.0034795837740485
  20    -0.027583491789379
  21     -0.19104375355408
  22     0.021748749106919
  23     -0.16276770651596
  24    -0.0072519578162676
  25     0.032774099457732
  26    -0.0035281405045483
  27     0.017470516773756
  28    -0.0065892210608923
  29     0.024921894573785
  30     0.086725163478949
  31    -0.00048979743100677
  32    -0.0013130886440116
  33    -0.0087509805729076
  34       1.1135578433787
  35      -1.5250636184719
  36      0.42963710108286
  37     0.048816317236969
  38     -0.14544659328862
 Sym= A
 Ene=              14
 Spin= Alpha
 Occup=    0.00000
   1     0.089186175158347
   2     -0.42351002738392
   3     -0.34220193352084
   4      0.13350502186936
   5      -0.1056117476852
   6       0.5962584516148
   7         0.05711927411
   8    -0.069163437217729
   9      0.39134684490406
  10    -0.087337796881035
  11    -0.015694421249386
  12     0.027650220302837
  13    8.4891818532436e-05
  14    0.0029927435819584
  15    0.0041704976925402
  16    -0.030887818581269
  17    0.0012954845300746
  18     0.003314980174923
  19    0.0029107427668375
  20    -1.5865011191093e-05
  21    -0.013990778170252
  22    0.0055524820395889
  23    -0.022437873931108
  24    0.0031062676658183
  25    0.0023522624470446
  26    -0.00081072254901936
  27    -0.0030544040346357
  28    -0.00060812856184989
  29     -0.02762670816111
  30    -0.017216654015407
  31    0.00037807388761296
  32    -5.0625013535517e-05
  33    0.00025356555248351
  34       0.8924249549131
  35      0.55017803616334
  36     0.018182806541183
  37    -0.013452705175231
  38     0.077110471571717
 Sym= A
 Ene=              15
 Spin= Alpha
 Occup=    0.00000
   1    -0.042870996109814
   2     -0.16029098584446
   3       1.1904503495165
   4      0.15297077227113
   5    -0.0041124952534022
   6     0.030855466173906
   7       1.0127848757131
   8      0.01329024627797
   9    -0.030931124228492
  10     -0.12574050140538
  11    -0.012467246889404
  12    -0.0043140449708238
  13      0.23616042732655
  14     0.006717445013779
  15    -0.037764545493622
  16       1.2076745771162
  17      -1.9861752697961
  18     -0.20660474302327
  19      0.12081689718679
  20     -0.50884845826415
  21       1.3466416345168
  22      -0.1499550944611
  23      0.78918600604471
  24      0.35649093424159
  25      0.36796702754459
  26    -0.029903327298017
  27     -0.25230626107818
  28    -0.037926687214889
  29     -0.21679535080606
  30     -0.10638817366893
  31     -0.12100485183821
  32     0.020622054458698
  33     0.091491857118772
  34    -0.081648024808016
  35      0.29792971513963
  36    -0.0057288501859537
  37    -0.0070222302597018
  38     0.034235873141996
 Sym= A
 Ene=              16
 Spin= Alpha
 Occup=    0.00000
   1    -0.016517927158084
   2    -0.083823397570551
   3      0.81660118894381
   4     0.057394599968269
   5    0.00061013568562257
   6    -0.0042839007398688
   7      0.57804751461791
   8    0.0063413235867683
   9    -0.0077440184883476
  10    -0.0092407959779207
  11    -0.029038183905741
  12    -0.0076858428784684
  13     0.063811162952737
  14     0.008108208488198
  15     0.038495416028949
  16    0.0062714787477267
  17     -0.61598296763393
  18     -0.75745700566912
  19     -0.01367964047843
  20     0.051586903384757
  21       1.5049686870186
  22     0.012623074767698
  23     -0.13313459922895
  24       -0.295094219729
  25     -0.33469783897316
  26     0.022960697697872
  27      0.14009005239338
  28     0.066779908289637
  29      0.25155655794307
  30     -0.13500809352521
  31    -0.094302387745937
  32    -0.0079085247074623
  33    -0.098271934140608
  34    -0.060387837562572
  35      0.12048406645511
  36    -0.018022204269755
  37    -0.00062590543906325
  38    0.0022659615078684
 Sym= A
 Ene=              17
 Spin= Alpha
 Occup=    0.00000
   1    0.0009504492858444
   2    -0.011886228450015
   3    -0.010281354258752
   4    0.0014549715023976
   5    -0.00096577177802923
   6    -0.012843137077556
   7      0.02391091447267
   8    -0.0062332654485958
   9      0.00364532911335
  10    -0.022814710941155
  11    -0.021070116243527
  12    0.0041478767380924
  13     0.014749961495637
  14    8.4242574613606e-05
  15    -0.062990072551328
  16      0.23900676967521
  17       0.8400171198798
  18      0.10027064704849
  19    8.331507887904e-05
  20      0.52900204368653
  21      0.15732819225064
  22    -0.00024925543589149
  23      0.62810735757215
  24      0.45596969855787
  25       0.1525084304719
  26    -1.3498097981896e-05
  27    0.0051190160540457
  28    -0.00039406150734516
  29     -0.79985541431907
  30     -0.46858249215319
  31      0.14513855455494
  32    0.00096067603015855
  33       1.4662921463037
  34     0.025014154114033
  35     0.053168116167546
  36      0.01250812189283
  37    -0.003377721903946
  38     0.014544455544721
 Sym= A
 Ene=              18
 Spin= Alpha
 Occup=    0.00000
   1    -0.0033937125285342
   2    -0.0091156580720951
   3      0.08965759997804
   4     0.012643991404745
   5    -0.036930578198904
   6    -0.0012675261484724
   7     0.079459841022039
   8     -0.30847858515256
   9    -0.012308581937769
  10    -0.011357935746397
  11    -0.013243102974242
  12    0.0094419329018189
  13     0.019230249259041
  14     -0.15983932249506
  15    -0.0023984770319988
  16       0.0694559447319
  17     -0.10968089656926
  18    -0.026878225794466
  19     -0.72061492664862
  20    -0.063249693207941
  21      0.12103182719465
  22      0.92866311005262
  23      0.11211651606572
  24     0.021930679382963
  25    -0.032005740986471
  26    0.0030378768629706
  27    -0.026071844418643
  28     -0.71262427183147
  29    -0.025704450860161
  30    -0.037566323682044
  31    0.00093753638889937
  32    -0.057447799523978
  33    0.0023568341818413
  34      0.01049855594071
  35     0.017118073597528
  36    -0.00025423948246043
  37     0.026792224270603
  38    0.0095336839736763
 Sym= A
 Ene=              19
 Spin= Alpha
 Occup=    0.00000
   1     0.062602412968964
   2     -0.23822424023749
   3     -0.82625600252582
   4      0.10191380235822
   5    -0.092752233378958
   6      0.51968960282828
   7      0.16171915366745
   8     -0.11075345941359
   9       0.6142680284701
  10     -0.43486891905107
  11     -0.15694276533552
  12       0.1385776451501
  13    0.0061257056199712
  14     0.027613846181416
  15    -0.0010613462555103
  16     0.010556550897277
  17     0.011198674687161
  18    0.0020733505264815
  19    0.0032687551851908
  20    -0.012803803831171
  21     0.021180400373493
  22    0.0066067415743932
  23    -0.00090557647021252
  24     0.023345672054432
  25     0.020139857829182
  26    -0.00055219494862699
  27    -0.014545770213433
  28    -0.0037351119111895
  29    -0.023223044008336
  30    -0.050267276970353
  31      0.01286696442157
  32    0.00075014788432873
  33     0.014220126020558
  34      0.82351615773178
  35      0.42907375580395
  36      0.11084169216234
  37     -0.24315764482018
  38        1.443482220277
 Sym= A
 Ene=              20
 Spin= Alpha
 Occup=    0.00000
   1    -0.00065547998520639
   2    0.0016534738544013
   3    0.0036401656782527
   4    -0.00012869950302719
   5    -0.090762619858595
   6    -0.022998682388553
   7     0.004420563005289
   8     -0.23772730428514
   9    -0.049333448308613
  10     0.075216577342949
  11    0.0053328581708509
  12      0.21015652682009
  13     0.039199129553963
  14     0.029041678379578
  15    0.0004484252471417
  16    4.2997935445175e-05
  17    -0.0082621298250455
  18    0.00034823170096091
  19    0.0078971166387224
  20    0.0014195184318479
  21    0.0029601577318635
  22     0.039763800477502
  23    0.0088786833150028
  24    -0.0019266279826523
  25    -0.0043152748800237
  26    -0.0046124598701771
  27    -0.001038844824922
  28    -0.018752312722676
  29    -1.7380644869878e-05
  30    0.0026522101757839
  31    -0.00047417349872742
  32    -0.00061819896657924
  33    -0.00092950878482456
  34    -0.030998568888127
  35     0.025649366914657
  36    -0.011150562401336
  37       1.0950009431006
  38      0.18103982592285
 Sym= A
 Ene=              21
 Spin= Alpha
 Occup=    0.00000
   1     0.005626919356082
   2      0.03928224683255
   3     -0.07222484194243
   4    -0.0036319895825052
   5    -0.0030837659598173
   6     0.043367371408998
   7    -0.049174032247949
   8    -0.022258384664494
   9      0.29275460512248
  10    -0.021215096577653
  11      0.16715434960862
  12     0.010978323243303
  13    -0.028932381788546
  14    -0.012817302545346
  15     0.021030189477654
  16     -0.30903185004185
  17      0.38464123096579
  18     -0.21416927854354
  19     0.013658978768131
  20      0.35450596814042
  21      0.25921252702893
  22    -0.010234385924808
  23     -0.46317691230836
  24     -0.12312258112885
  25       1.0094882751425
  26    0.0042154890327234
  27     0.090106326260127
  28     -0.10246577657642
  29    0.0039897829017848
  30    -0.042367884183884
  31     -0.21544014754999
  32    0.0033126927280246
  33      0.10511381820009
  34       0.1141417632354
  35    -0.016909330615195
  36     0.029817530472083
  37    -0.0037559171562365
  38    0.0064304341947621
 Sym= A
 Ene=              22
 Spin= Alpha
 Occup=    0.00000
   1      0.01153994567991
   2    -0.012788672342329
   3     -0.33286032619569
   4    -0.052596940284518
   5    -0.010056271039726
   6     0.056268490629089
   7     -0.19232326790222
   8    -0.021828110296625
   9      0.12123777698414
  10    -0.040705373410662
  11      0.19459555756945
  12    0.0087392240068843
  13     0.024645146571448
  14    -0.034563280588933
  15    -0.00037550412789334
  16     0.030876077565664
  17     0.045910006559302
  18    -0.023424858717044
  19    0.00087940945207568
  20    0.0020310487156378
  21      0.02754400540042
  22     -0.01266580663575
  23      0.11351791625072
  24    -0.0004938558260954
  25     0.024429091388571
  26    0.0035867679152674
  27    0.0074029814147049
  28    -0.002916070231543
  29    -0.043050115846823
  30    -0.057478001969748
  31    -0.0097697439129994
  32    0.00088182561023602
  33     0.016639772609441
  34     -0.35557962565574
  35      0.70775373812576
  36       1.0415322752321
  37    -0.0087744225890394
  38     0.056993530192916
 Sym= A
 Ene=              23
 Spin= Alpha
 Occup=    0.00000
   1    0.00049129775247357
   2    0.00024177533023997
   3    -0.0092739567679948
   4    -0.00047491893174128
   5    0.0080386059674002
   6    6.4732648667129e-06
   7    -0.0039353478322536
   8      0.04079270683309
   9    -0.002456179225737
  10    -0.00017521617202657
  11    -0.00090443992004703
  12    0.0050303300781892
  13    -0.00041465889605001
  14     0.019213371116268
  15    1.9842811631051e-05
  16    -0.0011102630786685
  17    -0.0061499092806247
  18    -0.0011246433461834
  19    -0.093382571314064
  20    0.0014895251290029
  21    -0.0073679464362352
  22     -0.24266608040074
  23    0.00066524813923155
  24     0.004356952509318
  25    -0.001738678802066
  26     -0.22645940287441
  27    0.00077035340063829
  28    -0.029523006282236
  29    -0.026480383010231
  30      0.03621591188222
  31     0.011670562782117
  32       1.1097604713611
  33    -0.0044996357438217
  34    -0.00036385699502999
  35    0.0017727774862479
  36    0.00033337705215431
  37    -0.00072511373872434
  38    0.00062605534463996
 Sym= A
 Ene=              24
 Spin= Alpha
 Occup=    0.00000
   1    -0.0075118718191692
   2     0.036652789942962
   3     0.032630570543938
   4    -0.028001756604143
   5      -0.7309732535072
   6     0.035756497818721
   7     0.012891597437711
   8      0.95250663346699
   9     -0.11879330558904
  10    0.0023331608900042
  11     -0.01357880146919
  12     0.035345736061609
  13    -0.002740264388665
  14       0.7001106253309
  15    -2.3089641261812e-05
  16    -0.0048344836392726
  17    -0.0025097496287915
  18    0.0017095630823592
  19    -0.036905830805645
  20    0.0018170909752445
  21    -0.010245556417991
  22     -0.30721392333837
  23    0.0063964902599032
  24    0.00075679302358925
  25    -0.0097293460812352
  26    -0.010176703321249
  27    0.00056154532088187
  28      0.15989147340085
  29    -0.0014262392006315
  30     0.020328797481914
  31    -0.00069279504108017
  32     0.028300812949698
  33    -0.0027514893318582
  34     -0.05988942359331
  35    -0.089407228438792
  36    -0.028301241513268
  37    -0.050993733293322
  38    0.0028645262267053
 Sym= A
 Ene=              25
 Spin= Alpha
 Occup=    0.00000
   1     0.045298734135845