[Molden Format]
made by pyscf v[2.0.1]
[Atoms] (AU)
O   1   8     0.00000000000000     0.00000000000000     0.00000000000000
O   2   8     2.75227162082039     0.00000000000000     0.00000000000000
H   3   1     3.06432366844540     0.00000000000000     1.80733789576484
H   4   1    -0.31205204762501     1.38450115188900    -1.16173440591458
[GTO]
1 0
 s    6 1.00
             5484.6717   0.001831099805527
             825.23495   0.013950098518422
             188.04696    0.06844509273075
               52.9645    0.23271427528445
              16.89757    0.47019295006289
             5.7996353    0.35852086192309
 s    3 1.00
             15.539616   -0.11077750382508
             3.5999336   -0.14802630511126
             1.0137618     1.1307670390447
 s    1 1.00
             0.2700058                   1
 p    3 1.00
             15.539616   0.070874299543311
             3.5999336    0.33975279781076
             1.0137618    0.72715859531445
 p    1 1.00
             0.2700058                   1
 d    1 1.00
                   0.8                   1

2 0
 s    6 1.00
             5484.6717   0.001831099805527
             825.23495   0.013950098518422
             188.04696    0.06844509273075
               52.9645    0.23271427528445
              16.89757    0.47019295006289
             5.7996353    0.35852086192309
 s    3 1.00
             15.539616   -0.11077750382508
             3.5999336   -0.14802630511126
             1.0137618     1.1307670390447
 s    1 1.00
             0.2700058                   1
 p    3 1.00
             15.539616   0.070874299543311
             3.5999336    0.33975279781076
             1.0137618    0.72715859531445
 p    1 1.00
             0.2700058                   1
 d    1 1.00
                   0.8                   1

3 0
 s    3 1.00
             18.731137    0.03349459952309
             2.8253937    0.23472694665786
             0.6401217    0.81375731841339
 s    1 1.00
             0.1612778                   1
 p    1 1.00
                   1.1                   1

4 0
 s    3 1.00
             18.731137    0.03349459952309
             2.8253937    0.23472694665786
             0.6401217    0.81375731841339
 s    1 1.00
             0.1612778                   1
 p    1 1.00
                   1.1                   1

[5d]
[7f]
[9g]

[MO]
 Sym= A
 Ene=               0
 Spin= Alpha
 Occup=    2.00000
   1    -0.00083405456485574
   2    0.0016517843625186
   3    0.0065675952871253
   4    0.0037598081770759
   5    -0.0026432160382964
   6    -0.0021153705643381
   7    0.0055978431917476
   8    -0.0040801929085366
   9    -0.0032749673438309
  10    0.00019929326296363
  11    0.00055926568450391
  12    -6.0375250224004e-06
  13    -0.00011201423834741
  14    0.0014842849529635
  15       1.0026869735671
  16    -0.011080646529052
  17    -0.046088810948302
  18    -0.013604309681409
  19     0.062501569000217
  20     0.028282300366431
  21    -0.006882959890715
  22     0.045337549807595
  23     0.016574520184548
  24    0.0015273735715708
  25    -0.00053660191057012
  26    0.0021052676719511
  27    -0.00041953622874774
  28    -0.00085097736695663
  29     0.005188817000751
  30    0.0076025384773552
  31    -0.00031175300486606
  32     0.001947928267681
  33    0.0015178442574641
  34     -0.00171122990645
  35    -0.0019964546347117
  36    0.00022195576563223
  37    -4.1883902638509e-05
  38    -0.00016493414182157
 Sym= A
 Ene=               1
 Spin= Alpha
 Occup=    2.00000
   1      -1.0001860067156
   2     0.010874214506345
   3     0.047511209597157
   4    -0.014029363304643
   5     0.028168860672897
   6     0.078695959782009
   7    -0.0063641365227477
   8     0.023306035031975
   9     0.055465912534671
  10    -0.0022474172864135
  11    0.0013810149844413
  12    0.0019796059024914
  13    -0.00017269647147871
  14    0.00018764627703678
  15    0.00064371080849847
  16    -0.0014817353608913
  17    -0.0031593329315363
  18    0.0044612510023693
  19    -0.001428037677242
  20    -0.0036195109285386
  21    0.0063529750587324
  22    -0.0023784379332179
  23    -0.0048118770702805
  24    -0.00051559476510032
  25    -0.0019008349908693
  26     2.04284169811e-05
  27    7.9667790150322e-05
  28    -0.00052862810566683
  29    -0.0035480886095675
  30    -0.0027390045674667
  31    7.8643545673978e-05
  32    -5.8453246681763e-05
  33    0.00015948130561195
  34    -0.0053700968293065
  35    -0.0066912612811829
  36    -0.00039872249690958
  37    0.00035522403947316
  38    0.0028624530632359
 Sym= A
 Ene=               2
 Spin= Alpha
 Occup=    2.00000
   1    -0.057368151746032
   2      0.11826357030515
   3     0.067418470857346
   4      0.40544040369768
   5    -0.0074031073917226
   6    0.0021845187545449
   7      0.25572610910362
   8     0.008073771923408
   9    -0.0035010159172005
  10    -0.018502814707755
  11    -0.0068305537113195
  12    0.0025414119734206
  13     0.034631903143822
  14     0.011320936477622
  15    -0.057371552327183
  16      0.11825191028894
  17     0.067403092928204
  18     -0.40544380262171
  19    -0.0030598350295697
  20    -0.0070560560935576
  21     -0.25572885911226
  22    0.0025275669861191
  23    0.0084474501619682
  24    -0.021982775307569
  25    -0.013063104015771
  26    -0.00083019158503118
  27     0.032622505241992
  28    -0.0020441111344808
  29    -0.025541720750095
  30       -0.051260910612
  31    -0.0087279976015433
  32    -0.00033549109934842
  33    -0.0011896490246323
  34    -0.025549487787052
  35    -0.051266227918516
  36    0.0087278160629218
  37    -0.0011271697952375
  38    0.00050679160912988
 Sym= A
 Ene=               3
 Spin= Alpha
 Occup=    2.00000
   1      0.11455897517891
   2     -0.25585973604907
   3      -0.1847326023015
   4     0.069716899525706
   5     -0.33005011975321
   6      0.27348390156292
   7     0.023298049770141
   8     -0.19407241022205
   9      0.16081692208499
  10    -0.0033427142267417
  11    0.0014498502935104
  12     0.020044058978658
  13     0.014902652652142
  14    -0.00097159076133963
  15    -0.0040870618069441
  16     0.010029433818611
  17     0.040120680520578
  18    -0.027044063893355
  19     0.011506060006006
  20    -0.0036837837433485
  21    -0.036482743448141
  22     0.023521131244118
  23    -0.011217418914148
  24    0.0013945956051868
  25    -0.0073006260118114
  26    0.0015086891042397
  27    -0.0024460212923723
  28    0.0068831904675758
  29    -0.011099574845973
  30    -0.009325676893342
  31    -0.0015312670201976
  32    0.00062343585242535
  33    0.00032831028372194
  34     -0.30483053642567
  35     -0.10304521763299
  36    -0.0044579719140571
  37     0.026194681448648
  38    -0.022252888692106
 Sym= A
 Ene=               4
 Spin= Alpha
 Occup=    2.00000
   1    0.0085193380098993
   2    -0.023513089292538
   3    -0.025633862217182
   4    -0.047484460402129
   5     -0.01268193934704
   6      0.01951403951717
   7    -0.050976523523207
   8    -0.017107919744266
   9     0.026552596586742
  10    -0.0028389377427367
  11    -0.0076035233049662
  12    0.0019856923205125
  13    0.0034021059033674
  14    0.0051425647548163
  15      -0.1379956283745
  16      0.40043651849644
  17      0.47663257593852
  18      0.15610960812577
  19       0.2482992306768
  20     -0.32936284000863
  21      0.11015878142487
  22      0.18314270972898
  23     -0.22173291333198
  24    -0.012486385408656
  25    0.0098738498974378
  26    0.0063142053288392
  27    -0.0063526566878915
  28    -0.0040885494306781
  29    -0.068580712983105
  30    -0.069713331257988
  31    0.0048024903775489
  32    0.0076106910984344
  33    -0.0046247411047692
  34    -0.021579971821792
  35    -0.003583548835596
  36    -0.0011362036938383
  37    0.00092729646153916
  38    -0.00037015813500149
 Sym= A
 Ene=               5
 Spin= Alpha
 Occup=    2.00000
   1    0.0040826944456233
   2    -0.010023123047457
   3    -0.040112347345974
   4    -0.027051914301762
   5    -0.0045771396707166
   6    -0.011179601533244
   7    -0.036487164083187
   8    -0.0065279833452366
   9    -0.025227315324969
  10    -0.00012292992752091
  11    0.0099660732456687
  12    -0.00027693809160128
  13    0.0031792841729544
  14    -0.0011687243179239
  15     -0.11456794592863
  16      0.25584306768094
  17      0.18471432533873
  18     0.069718989394073
  19    0.0026401594339899
  20      0.42863646695086
  21      0.02329932680188
  22    0.0015463283012296
  23      0.25204652367279
  24     0.025069617841793
  25    -0.0016764208233007
  26     0.001006338524777
  27    -0.0023592844122502
  28    0.00048643038811424
  29      0.30483316528418
  30      0.10304855504339
  31    -0.0044579707695759
  32    0.00020874977440569
  33    -0.034369998330021
  34      0.01110023139106
  35     0.009325672053366
  36    -0.0015314473226903
  37    -0.00065236549985435
  38    -0.00026644318997225
 Sym= A
 Ene=               6
 Spin= Alpha
 Occup=    2.00000
   1    -0.0044124256485661
   2     0.010496573282102
   3     0.027520568689824
   4     0.015687014426836
   5    -0.027089091027095
   6    -0.012421978798671
   7     0.016663511535579
   8    -0.040351719991451
   9    -0.021002102824196
  10    0.0015705829605914
  11    0.0017722289488781
  12    0.0012270941987458
  13    -0.00039322987877133
  14     0.014604387867043
  15    -0.044993393433258
  16     -0.16649618688156
  17     -0.18577988716312
  18    -0.061205101283928
  19      0.61606483053609
  20      0.13008629465028
  21    -0.047723222272069
  22       0.4487494986392
  23      0.08405769758302
  24    0.0032555974874576
  25    -0.0029783624837542
  26      0.02008317814406
  27    0.00076159363403534
  28    -0.0086665256348318
  29     0.026997848225793
  30     0.032840397545866
  31    -0.0015138785018752
  32     0.019139843338801
  33    0.0014947986151899
  34    -0.017942206854685
  35     -0.02270071447819
  36     0.001185960191801
  37    -0.0001613454602582
  38    -0.0014366174555668
 Sym= A
 Ene=               7
 Spin= Alpha
 Occup=    2.00000
   1    -0.077591913070328
   2      0.41975039937843
   3      0.49606576192133
   4     -0.16261478163827
   5     -0.16268067577577
   6       0.3401320692448
   7     -0.11556959244299
   8     -0.10223819944744
   9      0.23703636125227
  10    -0.0011093563519959
  11    0.0086661260326018
  12      0.01459782720679
  13    0.00030474012079985
  14    -0.0060017809707041
  15    0.0090436211392439
  16    -0.024713078677624
  17    -0.029103247446657
  18     0.049048334290005
  19     0.010573464749699
  20    -0.020100270834219
  21      0.05254440464196
  22     0.015260380245606
  23    -0.027235246041503
  24    -0.0036112865590726
  25    -0.0072481510824213
  26    0.0012108526426673
  27    0.0030745350592632
  28    0.0040275935022771
  29    -0.018708071546144
  30    -0.0002368476307137
  31    0.0012884008158039
  32    0.00048110311911056
  33    0.00082074608162331
  34    -0.071503225283289
  35    -0.073364842802449
  36    -0.0049529362207121
  37    -0.0005588167436276
  38    0.0066622547640237
 Sym= A
 Ene=               8
 Spin= Alpha
 Occup=    2.00000
   1     -0.14162828305812
   2      0.10896740671724
   3      0.12438168192195
   4    -0.040799082315059
   5      -0.4804477677484
   6      -0.4374188784208
   7    -0.032630758146884
   8     -0.34346963955259
   9     -0.32442757190352
  10     0.017387463202621
  11    -0.0059374624023064
  12    -0.0022089765285575
  13     0.011268417543873
  14    -0.0071337508857884
  15    0.0032892581922625
  16    -0.0073059029471647
  17    -0.024519117517639
  18    0.0095043035638076
  19     0.025861372730518
  20     0.015551126712973
  21     0.010342017608286
  22     0.040517041679902
  23     0.021207836683339
  24    0.0011357607098816
  25     0.011106558177467
  26    0.00077914732766716
  27     0.001271840549755
  28     0.010354460507973
  29     0.020690775933861
  30     0.022905703187209
  31    0.0010401539673624
  32    0.0011562283607126
  33    -0.00091984308931195
  34    -0.017857961230039
  35    -0.023859753814422
  36    -0.00087540762109269
  37    -0.013713683402578
  38    -0.014590537502346
 Sym= A
 Ene=               9
 Spin= Alpha
 Occup=    0.00000
   1    -0.017933606428774
   2      -1.4217026376558
   3       3.4079089604396
   4     -0.14660760336865
   5    -0.048499882026267
   6      0.36939667588486
   7       0.9029818022281
   8      0.94845003189406
   9      -1.2031566649831
  10     -0.13802308205749
  11      0.13499151321816
  12     -0.50398413456599
  13      0.16129990918038
  14     -0.29469664196925
  15     0.042235433159965
  16      0.14415211435211
  17      -1.1598000366708
  18      0.13606817249376
  19    -0.0090657745938252
  20     0.020718253023285
  21      0.92390529907473
  22    -0.039756415427756
  23      0.12945291117849
  24      0.11581563502299
  25    -0.052067605688534
  26    -0.0018736380101579
  27     -0.23405631807362
  28     0.026370883555763
  29     0.044732001308195
  30    -0.054019647142419
  31    -0.051858858658098
  32    -0.0041597848607481
  33     0.013691738350952
  34     -0.99014056302507
  35      -1.1014498123405
  36    -0.078923990155067
  37      0.25578923764956
  38     -0.16998433102062
 Sym= A
 Ene=              10
 Spin= Alpha
 Occup=    0.00000
   1     0.028261360152224
   2      0.12451870276524
   3      -0.8002609634945
   4    -0.073945028413873
   5    0.0061737993030304
   6    -0.013220384806377
   7     -0.65954217283201
   8     0.053131147480309
   9    -0.060553207101492
  10     0.091926196221591
  11    -0.033913275049924
  12     0.017546441301563
  13      -0.1513587157007
  14     0.018635912621832
  15    -0.0017420230894358
  16      -1.4677241889637
  17       3.2840728545559
  18    -0.088978757576633
  19      0.22712061952253
  20      -0.1268631011144
  21     -0.32589100442977
  22     -0.27975314787645
  23       1.4036785929335
  24      0.48376062997166
  25       0.4130442959872
  26    -0.010174962139711
  27      0.26552851564464
  28     0.057712479292821
  29       -1.039533777807
  30      -1.1981553750968
  31     0.038803523357273
  32     0.024344222155645
  33      0.36945245648088
  34      0.04896997099152
  35     -0.02489810652374
  36     0.048914383948851
  37    -0.0001137455789955
  38    -0.0090711822511327
 Sym= A
 Ene=              11
 Spin= Alpha
 Occup=    0.00000
   1    -0.035923519646169
   2      0.30155525290302
   3     -0.17821788690755
   4     -0.77313534657356
   5     0.054586417155025
   6      0.22941177547881
   7        1.813918417833
   8     -0.52915667620531
   9      0.10637550305554
  10     -0.14336284630281
  11    -0.043506508376639
  12      0.22240068226805
  13      0.49728795726765
  14     0.059114672539847
  15     0.035821007941316
  16     0.062043019057099
  17      -1.0107714309245
  18      0.15830190696204
  19     0.008074231586121
  20     0.010595040980027
  21      0.73602744852317
  22     0.040878260976324
  23      0.07631252189632
  24     0.097186449428883
  25    0.0024872854704918
  26    0.0024393151723331
  27     -0.17137878904611
  28    -0.025218693481562
  29     0.010155218987797
  30     -0.12928711345815
  31     -0.00684935576594
  32    -0.00038456548651676
  33     0.022913307553472
  34      0.39850794847001
  35      0.66599601779581
  36    -0.077606922941624
  37     -0.13842178721866
  38      0.16754067148459
 Sym= A
 Ene=              12
 Spin= Alpha
 Occup=    0.00000
   1    -0.013479463929302
   2    -0.026289883814194
   3      0.28350545036846
   4     0.024914427218867
   5    -0.0081400521026282
   6     0.027808300387493
   7      0.19318421992991
   8    -0.030336242595584
   9      0.15626023837484
  10    0.0018812332452961
  11     0.033919641047913
  12    0.0059786240190874
  13     0.019059362280554
  14    0.0038245021004957
  15    0.0035715114294122
  16     0.034715756928161
  17        0.186629511745
  18     0.027491867989163
  19    -0.0053128064129415
  20      -0.1063825646725
  21      0.28079473551677
  22    -0.022181935798118
  23    -0.056903151685818
  24     -0.21426750681217
  25     0.029957340389205
  26    -0.018070219615492
  27    -0.035903998491484
  28    -0.0029703175069128
  29       1.1925788501253
  30      -1.5316095478395
  31      -0.3582686747151
  32     0.093361536527692
  33     0.046639353645876
  34     0.014088773760703
  35       0.1024651108032
  36    -0.0016096077884206
  37    -0.011919161680745
  38    0.0027853689166532
 Sym= A
 Ene=              13
 Spin= Alpha
 Occup=    0.00000
   1     0.002603421963886
   2     0.038272064249607
   3      0.19848141401146
   4    -0.028928854562734
   5    -0.081017315420838
   6     0.055864132266344
   7     -0.28231071925719
   8    -0.057053215232171
   9    0.0053718099152384
  10     0.017036208565852
  11      0.02396481806247
  12      0.18892395107551
  13     0.093408985046844
  14     -0.02196088796717
  15    -0.013399842269833
  16     -0.02642397903069
  17      0.28215930719565
  18    -0.024879670717554
  19     0.016020308356919
  20     -0.02374337446832
  21     -0.19292809253873
  22      0.10057994164176
  23     -0.12218466471746
  24    -0.015019191743522
  25     0.017977680947581
  26    -0.0098275866111015
  27    0.0096650420033524
  28    -0.028631596531206
  29     0.014256469124485
  30      0.10338555123409
  31    0.0013584924803502
  32    -0.0056123509333175
  33    -0.011200882040627
  34        1.175894160697
  35      -1.5328991366901
  36      0.35516208191422
  37      0.14307882842562
  38     0.063583375578556
 Sym= A
 Ene=              14
 Spin= Alpha
 Occup=    0.00000
   1     0.088932667750526
   2     -0.42212825833289
   3     -0.34347226224318
   4      0.13419449621728
   5     -0.46598094077293
   6      0.38879045825365
   7     0.056024018746418
   8     -0.30463025895789
   9      0.25377249868124
  10    -0.009052068608282
  11    -0.010280463110157
  12     0.078909055778583
  13     0.045165138824031
  14     0.013307199928509
  15    0.0047008619517944
  16    -0.033113120670319
  17    -0.0012634617292727
  18    0.0019756492744505
  19     0.012232703409249
  20    0.0044550630424673
  21    -0.015949888494983
  22     0.023992994639538
  23    -0.012671789649536
  24    0.00095621330213221
  25    0.0010519215832683
  26    -0.0020871037900642
  27    -0.0043540863617157
  28    -0.0026332573664651
  29    -0.024098210542399
  30    -0.011566907100147
  31    0.0003931115985875
  32    -0.00031620224873738
  33    -0.00032282927222162
  34      0.89073747700936
  35      0.55056538038587
  36     0.017384458108395
  37    -0.059505943873838
  38     0.051216473872284
 Sym= A
 Ene=              15
 Spin= Alpha
 Occup=    0.00000
   1    0.0020546869190753
   2    -0.012969439037743
   3    -0.088258427426952
   4    -0.016846052070222
   5    -0.010559121192422
   6    -0.039842998597983
   7    -0.044341342377536
   8    -0.093330093318429
   9     -0.29094609670616
  10      0.02247190053523
  11      -0.1632151365649
  12    -0.010951455554575
  13    -0.015072368007862
  14    -0.032632430878807
  15    -0.035864107843011
  16      0.01829681794157
  17      0.50619059820512
  18      0.14940353046741
  19     -0.31785024669549
  20      -0.7077397016631
  21     -0.15205874067321
  22      0.39432323528091
  23       1.3827758144874
  24     0.080949407438024
  25     -0.51755438210948
  26      0.06631253761659
  27    -0.0011564024278637
  28    -0.025710559969856
  29     -0.40554363590544
  30     -0.50792981376191
  31      0.13345139520153
  32    -0.046647894393283
  33     0.007360030214942
  34     -0.03511701733175
  35     0.062442818999682
  36    -0.0015949021287452
  37     0.011489529318993
  38     0.020190129633701
 Sym= A
 Ene=              16
 Spin= Alpha
 Occup=    0.00000
   1    -0.025983397492754
   2    -0.098755715098203
   3       1.0082364040314
   4     0.095637845133631
   5    -0.0032124503630188
   6    -0.00093769807691107
   7      0.73445551981667
   8    -0.022375119454658
   9    0.0032674755990364
  10    -0.060421868173885
  11    -0.018673630217429
  12    -0.019105115423234
  13      0.10390354117661
  14     0.019078619192536
  15     0.033365276789493
  16      0.11559065772357
  17     -0.74808311880326
  18     -0.78103646066509
  19     -0.18813096523973
  20     0.038824570084655
  21       1.7234810073371
  22      0.21525003221274
  23    0.0083629333557411
  24    -0.078561773789077
  25     -0.16600409230723
  26     0.073529137598064
  27      0.04148812364517
  28      0.23903549864484
  29      0.10707073340054
  30     -0.21792714383668
  31     -0.11230829987977
  32    -0.041102702612057
  33    -0.018152013481193
  34    -0.056410176432398
  35      0.14176334185668
  36    -0.021526166417205
  37    -0.0076295452271635
  38    0.0079273119943108
 Sym= A
 Ene=              17
 Spin= Alpha
 Occup=    0.00000
   1    -0.00056740821249358
   2    -0.016046915691376
   3     0.022950411941027
   4    0.0021447806721011
   5    -0.0032096719548566
   6    -0.014478252201477
   7     0.035184402919279
   8    -0.021358246409623
   9    -0.0052737551581452
  10    -0.010384412024967
  11    -0.019022700219183
  12    0.0088104371071605
  13     0.019986203186385
  14    0.00046095696959592
  15    -0.062934291712233
  16      0.24173571569149
  17      0.85464532660297
  18      0.10151953408201
  19    0.00064812173558052
  20      0.52427505612722
  21      0.17188237758893
  22    -0.00049233559924756
  23      0.62547568295897
  24      0.44388281829267
  25      0.15038662503978
  26    0.00052014886286344
  27    0.0027420457781709
  28    -0.0010619358181419
  29     -0.72144083361757
  30     -0.57043066681192
  31      0.13775459345521
  32    -0.00042789212182707
  33        1.471055511288
  34     0.015185504722682
  35     0.046561748614105
  36     0.007842570477559
  37    -0.011179949584678
  38    0.0046513073374215
 Sym= A
 Ene=              18
 Spin= Alpha
 Occup=    0.00000
   1     0.035196313769847
   2       0.1314874490634
   3     -0.99428248180255
   4     -0.12975359059321
   5     0.015837739263114
   6     -0.01584955365899
   7     -0.83724281994674
   8    -0.088826065685167
   9     0.037108160519553
  10      0.11415399262487
  11     0.010993648925149
  12     0.014809124752267
  13      -0.1871247846069
  14    -0.029147106675998
  15     0.019815841438419
  16      -0.8943832792752
  17       1.6008871662537
  18       0.2335184869802
  19      -0.6348798402274
  20      0.34030692927687
  21      -1.1714852813989
  22      0.78348490788427
  23     -0.49245608470007
  24     -0.22183860817107
  25     -0.18137357689382
  26      0.10383389046175
  27      0.25894448975764
  28       0.2182719984853
  29     0.089435912559041
  30     0.065870642983991
  31     0.091135118123196
  32    -0.096773276051379
  33    -0.043367954856004
  34     0.090268519510714
  35       -0.263811384433
  36    0.00022551971163001
  37     0.021724692034884
  38    -0.014622120298682
 Sym= A
 Ene=              19
 Spin= Alpha
 Occup=    0.00000
   1    -0.063175563095554
   2      0.24011864227357
   3      0.85892106011332
   4    -0.097964112250107
   5      0.39995968108081
   6      -0.3426324580712
   7     -0.15540043956609
   8      0.47138281515986
   9     -0.41651367752013
  10     0.064378730607657
  11     0.092452361858984
  12     -0.38662038963543
  13      -0.2193443973307
  14     -0.10556825678361
  15    -0.00016824440280413
  16    -0.016754537935792
  17     0.013337365246263
  18    -0.00052387122430628
  19    -0.013316499172665
  20    0.0075124949270145
  21    -0.031132049309637
  22    -0.016158566798567
  23    -0.011252765162016
  24    -0.018996739419694
  25    -0.014717629561258
  26    0.00049925044248482
  27     0.014007565860499
  28       0.0146776921201
  29     0.015886631731582
  30     0.046778030536182
  31    -0.0075845585079703
  32    -0.0037575111054829
  33    -0.011991580531301
  34     -0.73402306278812
  35     -0.55676861654897
  36     -0.19086082627368
  37       1.1671118829754
  38     -0.88681188387695
 Sym= A
 Ene=              20
 Spin= Alpha
 Occup=    0.00000
   1    0.0036763344807244
   2    -0.018892999787612
   3    -0.083450925604532
   4    0.0098728785691859
   5    -0.075829570143096
   6    -0.057100559929766
   7     0.042813978227364
   8     -0.18025062485157
   9     -0.16301246108286
  10      0.18873568773539
  11     0.014653987818408
  12    -0.039250642674289
  13      0.11472650369645
  14     0.027776461131172
  15     0.002329202114266
  16    0.0038616154678586
  17    -0.046146546158589
  18    0.0022929308128946
  19    0.0040386696113051
  20     0.006089768308017
  21     0.023970334042747
  22     0.014725569480816
  23     0.042036401854433
  24    -0.0025389399647793
  25    -0.016010259561822
  26    0.0027685397625853
  27    -0.0042618961352056
  28    -0.0097825877719941
  29    -0.0025746206292473
  30    0.00034810275872409
  31    -0.002522455827059
  32    -0.0003786000373768
  33    -0.0015554535805071
  34     -0.10580953428203
  35      0.23228583981088
  36    -0.027317243406337
  37       0.6282004507641
  38      0.90745031520113
 Sym= A
 Ene=              21
 Spin= Alpha
 Occup=    0.00000
   1    -0.013638894351273
   2    -0.049613890747258
   3      0.35236264888351
   4     0.045656399065698
   5    0.0053428750837017
   6     0.034281159067056
   7      0.31271743655008
   8    -0.043529604630429
   9      0.08146000385373
  10    -0.050503977930329
  11     0.081249030751422
  12    0.0045123628168768
  13     0.075091203191236
  14     0.026183344036987
  15    -0.028069066845019
  16      0.55242668666598
  17     -0.72384199965402
  18     0.040838236768235
  19     -0.35156475823781
  20     -0.17108888142341
  21      0.32829432883794
  22      0.41082265105932
  23      0.29432730206446
  24      0.19418651317258
  25      0.82115085860991
  26       0.0270574474025
  27    -0.027064903130872
  28      0.40839964993307
  29     -0.19417472551912
  30    -0.020503108565773
  31     -0.14879063839596
  32    -0.053828444273026
  33      0.12303879403104
  34    0.0060754593383534
  35     0.071206369223294
  36     -0.00456539199565
  37    -0.015434463066768
  38    0.0036153271985315
 Sym= A
 Ene=              22
 Spin= Alpha
 Occup=    0.00000
   1       0.0056389980653
   2     0.013112455892613
   3     -0.23423874609946
   4    -0.064853004043136
   5     -0.01018707364955
   6    0.0090531378379771
   7     -0.23045860801944
   8    -0.049838158611577
   9     0.042984237237719
  10    -0.013490033570519
  11      0.13857922840773
  12    0.0017222415265255
  13     0.021797543052296
  14     -0.16611772106647
  15    -0.0009929141050381
  16     0.030570120694782
  17     0.054289520273644
  18    -0.025518873057231
  19    0.0033773732487726
  20    0.0028415443042527
  21     0.008241096706484
  22    -0.051448050559829
  23     0.067253580872512
  24    0.0018392569685376
  25     0.017616226915416
  26    0.0088673712985098
  27     0.015645006072351
  28    -0.013325158448844
  29    -0.024161373814143
  30    -0.037444327435635
  31    -0.010974588607515
  32    0.0042408217704706
  33     0.010843118152215
  34     -0.34053483757973
  35      0.53981966853375
  36       1.0572163766307
  37     0.065735510596715
  38     -0.06302338613225
 Sym= A
 Ene=              23
 Spin= Alpha
 Occup=    0.00000
   1    0.0017346664491498
   2     0.001670043940722
   3    -0.032931948335591
   4    -0.0011396678804571
   5    0.0067240883762702
   6    -0.00062349914068013
   7    -0.013594174198243
   8     0.039083103787021
   9    -0.0095067922632626
  10    -0.0010982210983158
  11    -0.0026742939410166
  12    0.0056047182699534
  13    -0.00096959014357122
  14     0.018805616871987
  15    -0.00036091577555926
  16    -0.0014049827278469
  17    -0.018716238854901
  18    -0.0020559686076625
  19    -0.092951413495314
  20    0.0090308255454436
  21     -0.01996581924429
  22     -0.24244297008361
  23    0.0059499370899045
  24     0.018373991573514
  25    -0.00084555431839683
  26      -0.2256916582325
  27    0.0031445077194993
  28     -0.02936701574364
  29     -0.10387020037166
  30      0.13026501740126
  31      0.02266268293034
  32       1.1062339835178
  33    -0.0025259554707532
  34    -0.00095651320596936
  35    0.0077823740600498
  36    0.0029736597041102
  37    -0.0026949058567604
  38    0.0011422193964646
 Sym= A
 Ene=              24
 Spin= Alpha
 Occup=    0.00000
   1     0.024087994946371
   2      -0.9492157301555
   3       1.6521556345707
   4     -0.22312596470493
   5    -0.075957806445521
   6     -0.70088150042395
   7       1.1887784860488
   8     0.023708338341353
   9      0.92755128001058
  10     -0.23607574689177
  11     -0.27113947392204
  12     0.087415052585106
  13       0.2467461686356
  14     0.067757119102407
  15     0.035922128988494
  16       0.1370798609009
  17      -1.0180950130953
  18       0.1308766847796
  19    -0.0032263658872465
  20     0.022450275995274
  21      0.85965924033933
  22     -0.01968622792662
  23    -0.092839019139911
  24     0.097327755866001
  25     0.032039968550051
  26    -0.002555197106407
  27     -0.20118508537252
  28     0.011884819072065
  29     0.092986492138556
  30     -0.27272418854053
  31    -0.0011804373586471
  32    0.0023956947919005
  33     0.027013675270947
  34      0.11591750642976
  35     0.084757490277625
  36    -0.099153515268495
  37    -0.094619493320324
  38    -0.035827797034425
 Sym= A
 Ene=              25
 Spin= Alpha
 Occup=    0.00000
   1     0.043752351230957
   2     0.040029269719471
   3     -0.79831446293249
   4      -0.1907553605347
   5    0.0048182682624812
   6    -0.0014248104179503