[Molden Format]
made by pyscf v[2.0.1]
[Atoms] (AU)
O   1   8     0.00000000000000     0.00000000000000     0.00000000000000
O   2   8     2.75227162082039     0.00000000000000     0.00000000000000
H   3   1     3.06432366844540     0.00000000000000     1.80733789576484
H   4   1    -0.31205204762501     0.00000000000000     1.80733789576484
[GTO]
1 0
 s    6 1.00
             5484.6717   0.001831099805527
             825.23495   0.013950098518422
             188.04696    0.06844509273075
               52.9645    0.23271427528445
              16.89757    0.47019295006289
             5.7996353    0.35852086192309
 s    3 1.00
             15.539616   -0.11077750382508
             3.5999336   -0.14802630511126
             1.0137618     1.1307670390447
 s    1 1.00
             0.2700058                   1
 p    3 1.00
             15.539616   0.070874299543311
             3.5999336    0.33975279781076
             1.0137618    0.72715859531445
 p    1 1.00
             0.2700058                   1
 d    1 1.00
                   0.8                   1

2 0
 s    6 1.00
             5484.6717   0.001831099805527
             825.23495   0.013950098518422
             188.04696    0.06844509273075
               52.9645    0.23271427528445
              16.89757    0.47019295006289
             5.7996353    0.35852086192309
 s    3 1.00
             15.539616   -0.11077750382508
             3.5999336   -0.14802630511126
             1.0137618     1.1307670390447
 s    1 1.00
             0.2700058                   1
 p    3 1.00
             15.539616   0.070874299543311
             3.5999336    0.33975279781076
             1.0137618    0.72715859531445
 p    1 1.00
             0.2700058                   1
 d    1 1.00
                   0.8                   1

3 0
 s    3 1.00
             18.731137    0.03349459952309
             2.8253937    0.23472694665786
             0.6401217    0.81375731841339
 s    1 1.00
             0.1612778                   1
 p    1 1.00
                   1.1                   1

4 0
 s    3 1.00
             18.731137    0.03349459952309
             2.8253937    0.23472694665786
             0.6401217    0.81375731841339
 s    1 1.00
             0.1612778                   1
 p    1 1.00
                   1.1                   1

[5d]
[7f]
[9g]

[MO]
 Sym= A
 Ene=               0
 Spin= Alpha
 Occup=    2.00000
   1    -7.5222772897886e-05
   2    -0.00040798723492306
   3    0.0031629150185313
   4    0.00049909854452678
   5    -1.3644997034783e-15
   6    -1.7576289583656e-05
   7    0.0020162489713999
   8    -1.8915344129999e-15
   9    0.00027190827934044
  10    9.7572223492037e-05
  11    8.0585166312951e-05
  12    -1.052605745252e-17
  13    8.4184792574197e-05
  14    5.1439960176081e-16
  15      0.99665102877729
  16     0.020042220329446
  17    -0.010170584367099
  18    -0.0017891636827861
  19    2.4129783580054e-14
  20    0.0033496786767086
  21    0.0018798175466599
  22    1.7399088541724e-14
  23    -5.6750022049677e-05
  24    0.00075024457424716
  25    0.00012767978751024
  26    8.8134126215645e-16
  27    -0.00070635177160045
  28    -3.1605014041476e-16
  29    1.8790604816386e-05
  30    0.0018236226479068
  31    1.5696255984065e-05
  32    7.8978024412639e-16
  33     0.001205515146899
  34    -0.00054792869253919
  35    -0.00012655442310277
  36    2.4086455027388e-05
  37    -4.6864992884315e-17
  38    8.5943596616907e-05
 Sym= A
 Ene=               1
 Spin= Alpha
 Occup=    2.00000
   1      0.99658298364577
   2     0.020205303228854
   3    -0.0099787828164053
   4    0.0017256002901535
   5    -3.2193836527455e-14
   6    0.0032188756490583
   7    -0.0019269012887963
   8    -2.31684704548e-14
   9    -0.00014217661946326
  10    0.00074502375987749
  11    -0.00013169082188826
  12    -1.1731723454559e-15
  13    -0.00070876230926913
  14    -4.1820345956948e-16
  15    -7.1139683338192e-05
  16    -0.00041817484451181
  17     0.003143067076836
  18    -0.00048062169598416
  19    1.6746356775916e-15
  20    -1.2655973703675e-05
  21    -0.0019971103276612
  22    2.6329186408396e-15
  23    0.00027720641887897
  24    9.6797400520823e-05
  25    -7.646245394275e-05
  26    1.8689627364764e-17
  27    8.5157419185191e-05
  28    6.835339316085e-16
  29    -0.00054163143837933
  30    -0.00011517044094572
  31    -2.2728597196221e-05
  32    6.674838388766e-17
  33    8.5596887357973e-05
  34    -9.0404412454324e-06
  35    0.0017894900571534
  36    -1.8051956959442e-05
  37    -1.050958808351e-15
  38    0.0012034447097202
 Sym= A
 Ene=               2
 Spin= Alpha
 Occup=    2.00000
   1    1.7994454581718e-13
   2    -3.162721190987e-13
   3    -3.6919172312721e-13
   4    1.1981682847481e-13
   5      0.67045809362299
   6    2.5062024345945e-13
   7    8.8946473486038e-14
   8      0.48365591357076
   9    1.6402874490101e-13
  10    1.0065358043783e-14
  11    5.9161662039089e-15
  12     0.024488140081154
  13    4.8537369521116e-15
  14    0.0086998315273435
  15    -7.5573634261711e-15
  16    1.9093501573862e-14
  17    3.7888049145992e-14
  18    -3.3455576628291e-14
  19    -0.035374645491659
  20    -8.5541163149104e-15
  21    -3.5035116129308e-14
  22    -0.055250142236747
  23    -9.8519882350886e-15
  24    1.4882073165078e-15
  25    -7.528015140211e-15
  26    -0.00040395392337086
  27    -3.1007838170754e-15
  28    -0.014272630983592
  29    -1.2003610813703e-14
  30    -2.3588254924349e-14
  31    -2.3700824137754e-15
  32    -0.0014069414691057
  33    4.8532136435575e-16
  34    5.0653412424031e-14
  35    6.5736663385878e-14
  36    5.4616521179263e-15
  37     0.021935112771515
  38    4.9445866290218e-15
 Sym= A
 Ene=               3
 Spin= Alpha
 Occup=    2.00000
   1    -5.2616805885818e-15
   2    1.2916508245953e-14
   3    2.7328745398755e-14
   4    2.3965155201152e-14
   5    -0.035374662755409
   6    -6.4623586252129e-15
   7    2.457023778942e-14
   8    -0.055250154690494
   9    -7.3609136522184e-15
  10    8.8564189852136e-16
  11    3.9155554578512e-15
  12    -0.00040395455392025
  13    -8.4461215737657e-16
  14     0.014272630759579
  15    5.6199969427593e-14
  16    -2.2107922255246e-13
  17    -2.5866513393033e-13
  18    -8.3376898281679e-14
  19      0.67045809453386
  20    1.7602224753663e-13
  21    -6.1460938569634e-14
  22      0.48365591499341
  23    1.1535294343141e-13
  24    6.9182314477325e-15
  25    -5.0139897205076e-15
  26     0.024488140091556
  27    2.3145721974384e-15
  28    -0.0086998311598358
  29    3.6561505057237e-14
  30    4.3762053505166e-14
  31    -3.0502364229481e-15
  32     0.021935112807742
  33    2.6743475898663e-15
  34    -9.1202247638736e-15
  35    -1.3843276215337e-14
  36    3.1098818611222e-15
  37    -0.0014069420339168
  38    7.3584464609172e-16
 Sym= A
 Ene=               4
 Spin= Alpha
 Occup=    2.00000
   1     -0.11188922381227
   2      0.24694312486951
   3      0.17601192276751
   4    -0.068796289668345
   5    -8.6303505164707e-17
   6      0.42742899039333
   7    -0.016567997951194
   8    -9.2459669485796e-17
   9      0.24921767151115
  10     0.027292824430913
  11    0.0024134543907038
  12    4.0025451644362e-17
  13    -0.0017391016860336
  14    2.1409068082745e-16
  15    0.0040839609743304
  16    -0.011814096451992
  17    -0.025042025400311
  18     0.029901647750447
  19    -1.3386321481119e-16
  20     -0.01955103696039
  21     0.039386696743405
  22    1.7916193297578e-17
  23    -0.025992694705718
  24    -0.0017990881484155
  25    -0.0093926078013532
  26    -2.6735798088262e-17
  27    0.0030027528548337
  28    -1.0102235024619e-17
  29    -0.014628429980694
  30    -0.014628801403878
  31    -0.00027947222322147
  32    -3.0206941091506e-17
  33    0.00094556318726599
  34      0.31059551761397
  35      0.11842361557839
  36    0.0067543214439594
  37    2.6114426106557e-17
  38    -0.033411018670569
 Sym= A
 Ene=               5
 Spin= Alpha
 Occup=    2.00000
   1    0.0040839283003508
   2    -0.011813697892744
   3     -0.02504163388154
   4    -0.029901571267407
   5    1.5890010162789e-16
   6    -0.019551078140238
   7    -0.039386643991107
   8    2.0677913201246e-16
   9    -0.025992727526994
  10    -0.0017990936255447
  11    0.0093926153702899
  12    3.7994806268048e-17
  13     0.003002761002687
  14    -1.0950322870576e-16
  15     -0.11189188614057
  16      0.24694287268052
  17        0.176011673463
  18     0.068796073680671
  19    -1.0411409424209e-15
  20      0.42742915783789
  21     0.016567862873634
  22    -8.2124810677474e-16
  23      0.24921779449116
  24     0.027292818769428
  25    -0.0024134648759494
  26    -2.7631160084631e-18
  27    -0.0017390798191336
  28    3.3570970861106e-18
  29      0.31059554537493
  30       0.1184236483406
  31    -0.0067543271428981
  32    -5.3264050470966e-18
  33    -0.033411019577113
  34    -0.014628375190154
  35    -0.014628842591914
  36    0.0002794774049615
  37    -4.7036796842975e-19
  38    0.00094554763734931
 Sym= A
 Ene=               6
 Spin= Alpha
 Occup=    2.00000
   1     0.010494422599597
   2    -0.026366178122682
   3    -0.052804586854481
   4    -0.047056311091073
   5    -1.7476293395406e-14
   6     0.013054437049963
   7    -0.049957980838303
   8    -2.7803632717727e-14
   9     0.014177797547867
  10    -0.0022442148324947
  11    -0.010894064220181
  12    -7.6778725709068e-17
  13    0.0028733830119133
  14    7.3456301176323e-15
  15      -0.1839477253038
  16      0.44102286585624
  17      0.51729611405428
  18      0.16847443855864
  19    3.3609406623327e-13
  20     -0.34849090831421
  21      0.12488573483238
  22    2.4261602632198e-13
  23     -0.22766431267281
  24    -0.013986139588574
  25     0.010642998669918
  26    1.2194089741415e-14
  27    -0.0062504343432014
  28    -4.3547944002864e-15
  29    -0.072740681586401
  30    -0.091213524335434
  31    0.0062099447517527
  32    1.0930353812985e-14
  33    -0.0058195957206635
  34     0.016678349731274
  35     0.030153441563031
  36    -0.0035742121802077
  37    -6.2589706280147e-16
  38    -0.00094714571726198
 Sym= A
 Ene=               7
 Spin= Alpha
 Occup=    2.00000
   1     -0.18431836550782
   2      0.44101506935438
   3      0.51729966662621
   4     -0.16847566118044
   5    4.8084782413829e-13
   6     -0.34849232298792
   7      -0.1248853917278
   8    3.4668793178954e-13
   9     -0.22766441012413
  10    -0.013986399495495
  11     -0.01064298506467
  12    1.7635616811194e-14
  13    -0.0062502209838129
  14    6.139555221843e-15
  15     0.010494417473029
  16    -0.026366206331856
  17    -0.052805792344507
  18     0.047057096801305
  19    -2.5465220698014e-14
  20     0.013054133342948
  21     0.049959114363573
  22    -3.9711748393409e-14
  23     0.014177483866869
  24    -0.0022442369432544
  25     0.010894127812664
  26    -3.0128159869427e-16
  27    0.0028732991762348
  28    -1.0216277329918e-14
  29     0.016678418531588
  30     0.030153476173741
  31    0.0035742417315676
  32    -1.0196060903195e-15
  33    -0.00094716020967751
  34    -0.072740783378044
  35    -0.091214167986691
  36    -0.0062099583982872
  37    1.5749254595862e-14
  38    -0.0058200256797008
 Sym= A
 Ene=               8
 Spin= Alpha
 Occup=    2.00000
   1    -0.057909093949309
   2      0.12036784254831
   3     0.068215937942995
   4      0.40512490408283
   5    8.5840824223418e-16
   6    -0.0096109114196049
   7      0.25376716387213
   8    8.9280941723113e-16
   9     0.015656975647617
  10    -0.021419486590985
  11     0.016762588011118
  12    -1.4740353952946e-16
  13     0.033367231443937
  14    -1.9765120427908e-16
  15    -0.057911416578136
  16      0.12036697895828
  17     0.068215034899986
  18     -0.40512509890271
  19    6.1543273514792e-16
  20    -0.0096105661820223
  21      -0.2537672769858
  22    2.816592071936e-16
  23     0.015657223454123
  24    -0.021419482945719
  25    -0.016762591119617
  26    8.9167075917818e-17
  27     0.033367249217553
  28    -6.4247570555802e-17
  29    -0.032158014005509
  30    -0.048807482979426
  31    -0.010163755732214
  32    8.4583724458768e-17
  33    -0.0010947627139747
  34     -0.03215801002727
  35    -0.048807603812452
  36     0.010163754393025
  37    -6.0416704550748e-17
  38    -0.0010947814401431
 Sym= A
 Ene=               9
 Spin= Alpha
 Occup=    0.00000
   1     0.018174083653845
   2      -1.6636183729512
   3       3.3957776290514
   4      0.22768988055375
   5    -1.5263301815722e-11
   6     0.069267834288986
   7      0.21849013768129
   8    1.9532342267352e-11
   9       1.0709948612758
  10      0.36605478259078
  11     -0.14125150722927
  12    -8.6692120026169e-12
  13      0.33559167061029
  14    1.6485312352214e-11
  15     0.036515407585957
  16      0.17445740214108
  17     -0.99110993730667
  18     0.086341469750136
  19    -8.3853890930193e-13
  20    -0.011576382106736
  21      0.66448217427913
  22    -6.6499967854949e-12
  23     -0.18318251130862
  24      0.05454860667414
  25     0.052399051040265
  26    3.1852232305582e-14
  27     -0.18286787590699
  28    3.5321139742608e-12
  29      0.12660736339101
  30      0.13180006678501
  31    -0.044741738199133
  32    5.7042000626491e-13
  33    -0.0064734141373566
  34     -0.86843352946705
  35      -1.1642133761396
  36    -0.061553124597518
  37    6.5473222254383e-13
  38      0.31593944289718
 Sym= A
 Ene=              10
 Spin= Alpha
 Occup=    0.00000
   1     0.028080265816267
   2      0.15958763678172
   3     -0.80611634759527
   4    -0.051239333898577
   5    1.1891041544911e-12
   6     -0.01740683035185
   7     -0.49982623622497
   8    9.7292778175144e-12
   9     -0.23250456190121
  10     0.022739752069672
  11    -0.061254041006617
  12    3.2945928086554e-13
  13     -0.13644484919383
  14    5.1655050881223e-12
  15     0.014637368694904
  16      -1.5714653034093
  17        3.266401353576
  18     -0.27458487388345
  19    2.205706961153e-11
  20    -0.0049734961542608
  21     0.027293142705264
  22    -2.8621094309368e-11
  23       1.2814217378811
  24      0.49307466651818
  25      0.15705079032071
  26    -1.6625558325788e-12
  27      0.22468671050075
  28    2.3715637382912e-11
  29     -0.97257304564243
  30      -1.2745418379801
  31     0.060884325833054
  32    2.0410600981962e-12
  33      0.35691375384812
  34      0.13479807315557
  35      0.17490957938416
  36      0.03992746953181
  37    -9.115169486973e-13
  38    -0.015290178733165
 Sym= A
 Ene=              11
 Spin= Alpha
 Occup=    0.00000
   1    0.0069900282877106
   2    -0.033731957209902
   3     -0.40343706339632
   4    -0.020947387857277
   5    -1.204379194666e-13
   6     0.017246167269283
   7       0.1025784068514
   8    -3.1429412333569e-13
   9    -0.091340819977889
  10      0.10479847049861
  11     -0.11609153705838
  12    -2.9024042636701e-13
  13     0.043202498405231
  14    3.7361371257999e-14
  15    0.00083607638726235
  16     0.030898996255456
  17    -0.0042033278275473
  18    0.0065320550993707
  19    9.8352896581885e-15
  20     0.020002433190686
  21      0.19245592253762
  22    5.337731202521e-14
  23      0.03099271411617
  24     0.010222288760943
  25    0.0082438060993427
  26    8.8286897568377e-15
  27    -0.013242593863853
  28    -2.4526740521789e-14
  29    -0.039970467435357
  30     -0.39956185727121
  31     0.039184017441604
  32    -5.472481496901e-15
  33      0.02094668002588
  34      -1.0485971007881
  35       1.6509744798308
  36      0.46613857890332
  37    1.4240896500365e-12
  38     -0.11088015726148
 Sym= A
 Ene=              12
 Spin= Alpha
 Occup=    0.00000
   1    -0.0013895663696468
   2    -0.027027616851855
   3     0.024805035076027
   4     0.010222538212452
   5    -1.3340834707793e-15
   6    -0.013333515507362
   7      0.18021567810142
   8    -2.9228454191589e-15
   9    -0.0035815993392992
  10    -0.0044272667404924
  11     0.017457284373672
  12    -6.517817381421e-16
  13    0.0088446987933111
  14    -1.3684730058339e-15
  15     0.017322323474552
  16    -0.052375022296599
  17     0.059736868615105
  18    -0.049824213925497
  19    6.4090833308968e-15
  20     -0.21735074226513
  21     0.071179046302989
  22    1.7338129043452e-14
  23      -0.1559683464399
  24     -0.27934076930686
  25     -0.14471069672293
  26    1.6467747262761e-14
  27    -0.042716765768882
  28    2.2139353920427e-15
  29       1.3182880338589
  30       -1.416686143818
  31      0.28068132336038
  32    -8.0794705528914e-14
  33     -0.42435433981324
  34     0.033402348776018
  35      0.35970444472447
  36     0.038727358529825
  37    2.7066241106664e-16
  38    -0.019337605856625
 Sym= A
 Ene=              13
 Spin= Alpha
 Occup=    0.00000
   1      0.08849658888751
   2     -0.42063935919968
   3     -0.34328374569921
   4      0.14253381434297
   5    4.9706867455145e-15
   6     -0.61373802311545
   7     0.047875256680339
   8    -5.0321031549819e-15
   9     -0.39499645634667
  10    -0.089936116549242
  11     0.015094062856375
  12    2.7451744928125e-15
  13    -0.003036455512192
  14    -1.146490511105e-15
  15    0.0029040325386879
  16    -0.013705141587652
  17     -0.01110410921672
  18    0.0034406443374262
  19    1.6733561073858e-16
  20     0.031432401270293
  21    -0.020809717736865
  22    1.0058664633033e-15
  23     0.019824331042131
  24    0.00095818141245702
  25    -0.0028336229671501
  26    -7.920001926497e-17
  27    -0.0013866106254958
  28    -3.7292869030586e-16
  29    -0.051149013155852
  30    -0.013047324261533
  31    -0.0065606100569488
  32    -6.2329323081561e-17
  33    -0.0029122757470783
  34      0.87958731773648
  35      0.55705579593518
  36     0.021887061444369
  37    -1.4130066154938e-15
  38      -0.0756724258357
 Sym= A
 Ene=              14
 Spin= Alpha
 Occup=    0.00000
   1    -0.039569781338143
   2     -0.55506763420008
   3       1.7825581327611
   4     -0.75525404976149
   5    1.0395928208791e-11
   6     -0.37070841204409
   7        1.933309244136
   8    -1.2733956887811e-11
   9      0.73232696745684
  10     -0.15559652446891
  11     -0.10299339887364
  12    5.2585106824205e-12
  13      0.18771958806113
  14    -5.9355304166416e-13
  15     0.043538952366014
  16      0.14601990385776
  17      -1.3887485695984
  18      0.16537351409143
  19    1.8066517882697e-13
  20      0.01126475696381
  21       1.0267712509923
  22    2.7297152574339e-12
  23     -0.10242401107703
  24     0.098959524138894
  25     0.042911171353388
  26    -6.8271423901705e-14
  27     -0.21985541827917
  28    -9.8352881010015e-13
  29      0.10124721762745
  30     -0.16888585307205
  31    -0.014077354306589
  32    -2.0067665185543e-13
  33     0.015269518081748
  34     -0.31265712060972
  35     -0.17127259106242
  36     -0.11689103535056
  37    -1.859589567148e-14
  38     0.010677621832189
 Sym= A
 Ene=              15
 Spin= Alpha
 Occup=    0.00000
   1    -0.027708566230132
   2    -0.061806798583117
   3      0.68106173607054
   4      0.10811844557799
   5    -6.5065699857162e-14
   6    -0.049961690672399
   7      0.69077009686796
   8    -5.7545471083193e-13
   9     -0.42902297755864
  10     -0.13145045429399
  11     -0.12093248061374
  12    1.091824609706e-14
  13      0.15077452796838
  14    -2.848526150574e-13
  15    -0.033097294705652
  16      0.53477985092463
  17     -0.59841854651068
  18     -0.19945962764265
  19    -1.5083306194828e-12
  20     -0.72396345728463
  21       1.0450759730264
  22    1.8993748906696e-12
  23       1.4726962362955
  24      0.32128555916558
  25     -0.30342566986745
  26    -1.0372998403218e-12
  27     -0.22691136765181
  28    -1.1561128170607e-12
  29     -0.44978292238825
  30     -0.61115362189789
  31     0.038497824290543
  32    8.9677561423148e-14
  33     0.081960959776168
  34      0.10381364771015
  35      0.24819163223217
  36    -0.012511648509556
  37    4.6641772168759e-14
  38    -0.050374134133561
 Sym= A
 Ene=              16
 Spin= Alpha
 Occup=    0.00000
   1    -0.044483625912358
   2     -0.15204812806644
   3       1.4222848131504
   4      0.16718669529241
   5    3.0949598412557e-14
   6    -0.010229281634226
   7       1.0498889244258
   8    3.7564082424334e-13
   9      0.10869742246456
  10     -0.09957258567862
  11     0.047276003267605
  12    1.8124135010101e-14
  13       0.2240489714288
  14    1.5925552406223e-13
  15     0.038401683133761
  16      0.60459296728776
  17      -1.8728017838052
  18     -0.75555704478137
  19    1.1983998386709e-12
  20      0.36071535899699
  21       1.9556051777017
  22    -1.5105334818859e-12
  23     -0.74232341603595
  24      0.14378656422046
  25    -0.076103396584304
  26    -3.0914695744719e-13
  27     -0.18560152166976
  28    3.740594573415e-13
  29      0.32716638371037
  30      0.19195148963338
  31     -0.12540172538427
  32    1.8204405161341e-13
  33    -0.015196004293457
  34     -0.10582151323394
  35      0.16797209665366
  36    -0.016164155178989
  37    -3.4485690701142e-14
  38     -0.01514827400271
 Sym= A
 Ene=              17
 Spin= Alpha
 Occup=    0.00000
   1     0.001030758020763
   2    -0.015395423528985
   3    -0.045787376272201
   4    -0.0069975226508326
   5    -3.530767460644e-16
   6    -0.020188608042788
   7     0.070563255638056
   8    -5.7298443626892e-16
   9    -0.073758792001643
  10    -0.016732349629908
  11    -0.020279566363763
  12    -1.4130999295465e-16
  13     0.013811245079815
  14    -3.4713179363796e-16
  15    -0.061099000168357
  16      0.21931465068199
  17      0.92456188192029
  18     0.068507918661353
  19    1.4971437438849e-15
  20      0.48773740897744
  21      0.10535152866768
  22    4.6693107653123e-15
  23      0.62516235936401
  24      0.40607583053793
  25     0.051791931688117
  26    4.0822004754127e-15
  27    -0.0098142239247067
  28    4.2469720508957e-16
  29     -0.44745893797096
  30     -0.91363839286011
  31      0.52519608485561
  32    -2.0049813177377e-14
  33        1.342307424524
  34     0.024735192776941
  35      0.17796037701232
  36    0.0090689532667891
  37    -2.0046585809406e-17
  38    -0.0082240807689328
 Sym= A
 Ene=              18
 Spin= Alpha
 Occup=    0.00000
   1    3.3855986619262e-12
   2    -1.2945802955036e-11
   3    -3.7830130290909e-11
   4    -2.986166474014e-11
   5     -0.71630967786114
   6    5.5732420619027e-11
   7    1.3700568966747e-10
   8       0.9265583665928
   9    -1.9656122892372e-10
  10    -1.1286602639981e-10
  11    4.1960645792347e-12
  12      0.04086777703418
  13    3.690777839791e-11
  14      0.72428141399974
  15    3.7057767402116e-12
  16    3.1632066668475e-12
  17    -7.4266105535604e-11
  18    1.7315935495254e-11
  19    -0.036982482744698
  20    4.8858552293438e-12
  21    7.7836008027736e-11
  22     -0.30800350943753
  23    4.5761682930495e-11
  24    1.8626393199342e-11
  25    -1.0588510018868e-11
  26    -0.010087318098796
  27    -2.0767096497146e-11
  28      0.16152869007412
  29    -1.2410922600891e-11
  30    -3.3019677559427e-11
  31    -1.6439930016708e-12
  32     0.028690388378629
  33    6.281969434983e-12
  34    1.1125534856704e-10
  35    1.1464019344004e-10
  36    6.1803602122612e-12
  37    -0.064785436904963
  38    -4.1312033439586e-11
 Sym= A
 Ene=              19
 Spin= Alpha
 Occup=    0.00000
   1    -0.063212657051664
   2       0.2238773562166
   3       0.8353676930635
   4    -0.083346429846834
   5    -6.371024078546e-14
   6       0.5342350806825
   7    -0.075503462981901
   8    -1.657817967156e-13
   9      0.63855473132695
  10      0.48096260256491
  11     -0.10522652404764
  12    -1.5337711842933e-13
  13     0.006963216401174
  14    1.9854382308628e-14
  15    0.0013855751997607
  16    -0.0039546103816323
  17    -0.049511788686142
  18    0.0099009343487846
  19    5.3204479144111e-15
  20    -0.013616873264816
  21     0.001103780146767
  22    2.8589483797568e-14
  23    -0.067257472038393
  24         -0.0141366085
  25     0.024979632694412
  26    4.7058131937366e-15
  27    0.0097061937485919
  28    -1.3034874623555e-14
  29     0.010755957683596
  30     0.029973891821412
  31     0.006083675409332
  32    -2.9036249000655e-15
  33    -0.00041458874856138
  34     -0.90812000027361
  35     -0.31970253641802
  36     -0.36817254980506
  37    7.5247935248103e-13
  38         1.40849789591
 Sym= A
 Ene=              20
 Spin= Alpha
 Occup=    0.00000
   1    1.3540084096645e-15
   2    -3.457393437098e-15
   3    -3.3784488680045e-14
   4    -6.080288510141e-15
   5     0.007958152665242
   6    -1.9242993268175e-15
   7    -1.1608044801077e-14
   8     0.041748328572219
   9    3.8338260749782e-15
  10    4.5523707471492e-15
  11    -5.110128562411e-15
  12    0.0069347731820181
  13    -3.2367113513594e-15
  14     0.019054714664588
  15    1.7690911250679e-15
  16    -1.6178298744579e-14
  17    -9.46466879106e-15
  18    -1.931657406468e-14
  19    -0.094448316100817
  20    -1.6149570153737e-14
  21    -6.8054610847941e-14
  22     -0.24362017831544
  23    -1.3769298281394e-14
  24    -5.222886223896e-15
  25    -4.9660473730794e-14
  26      -0.2267528787247
  27    -1.7784988265033e-15
  28    -0.029402784781782
  29    2.3843057325851e-14
  30    2.0965119164277e-14
  31    2.1436673205063e-13
  32       1.1101157285171
  33    -9.080463394169e-14
  34    -4.7282576974032e-15
  35    1.1892263307677e-14
  36    6.2482187259682e-16
  37    -0.004249883804709
  38    1.7481290326661e-16
 Sym= A
 Ene=              21
 Spin= Alpha
 Occup=    0.00000
   1    -0.00019798410204634
   2    -0.057031825725084
   3      0.25946823106479
   4    -0.018085967762344
   5    6.2589814980627e-14
   6     0.031880940969717
   7      0.15718790240067
   8    4.3335093239622e-13
   9      0.13539801407365
  10     0.039401733998007
  11      0.11895994440629
  12    9.7353860581212e-15
  13    -0.016399640519203
  14    2.5572321917772e-13
  15     -0.01622436715032
  16      0.28841938066461
  17     -0.36693885539712
  18     -0.14485409412009
  19    7.6170331877906e-13
  20     -0.16340564185569
  21      0.39293733649338
  22    -1.015681879432e-12
  23      0.19758649338677
  24     -0.22742386882242
  25      0.98148262807309
  26    1.3406650602651e-13
  27      0.28653062838596
  28    1.4031199231386e-12
  29    -0.048631706285551
  30    -0.071358865721917
  31      -0.2345168949849
  32    1.4226193472897e-14
  33      0.04816050019659
  34    -0.071293253439971
  35     0.025668872783748
  36    -0.031252803074852
  37    -4.0836112870502e-14
  38    0.0070234299559846
 Sym= A
 Ene=              22
 Spin= Alpha
 Occup=    0.00000
   1    -0.0077418854442637
   2     0.082969154458298
   3      0.15248460364956
   4    -0.087338685138205
   5    -4.8817587438086e-15
   6     0.040333653609531
   7     -0.39097455270667
   8    -1.2737755288965e-14
   9     0.062555102647299
  10    -0.048284379551272
  11     -0.20718782047792
  12    -1.1331839204404e-14
  13    -0.0076791426947479
  14    1.4339180169404e-15
  15    -0.0075682813611729
  16    0.0066850690897077
  17      0.18199120582369
  18    -0.035561863628994
  19    1.2113052816073e-16
  20    0.0027550957681297
  21     -0.13483051509158
  22    2.0463694013478e-15
  23    -0.025438320284183
  24    -0.025532347848757
  25    -0.031749278989557
  26    3.4679222905189e-16
  27     0.021077403393165
  28    -1.0135555839383e-15
  29     0.038657019494097
  30     0.092638889801209
  31    -0.012588729324296
  32    -2.1269018477376e-16
  33    -0.0087082192038747
  34       0.3557253206608
  35     -0.74243160968697
  36      0.96591741762991
  37    5.5679342211588e-14
  38      0.42292987605574
 Sym= A
 Ene=              23
 Spin= Alpha
 Occup=    0.00000
   1    3.4397976078356e-14
   2    -1.13769399824e-13
   3    -5.5939607391323e-14
   4    8.7086747890472e-14
   5    -0.094453157609989
   6    -3.8638165636505e-13
   7    -5.7303406293947e-14
   8     -0.24361414064336
   9    -3.2174660214818e-13
  10    -4.597434464477e-13
  11    2.308053823723e-13
  12     -0.22675257659401
  13    -5.9116028428443e-14
  14     0.029405127659044
  15    -1.5394803706203e-15
  16    -3.7096031477911e-14
  17    2.7726345943648e-14
  18    -1.3064297627626e-14
  19    0.0079575951233194
  20    -1.6421837925083e-14
  21    -2.3889930437692e-13
  22     0.041747244054238
  23    7.8759470268869e-15
  24    -1.783802072268e-15
  25    -2.602840047341e-14
  26     0.006934709753685
  27    8.886660514365e-15
  28    -0.019053756852626
  29    4.1772654164913e-14
  30    4.8687327053746e-13
  31    -5.3765717903718e-14
  32    -0.0042500319411061
  33    -2.5965405743943e-14
  34    1.945355527599e-12
  35    -1.8617531443671e-12
  36    -3.9689787424298e-13
  37       1.1101152213785
  38    -8.3442412456719e-13
 Sym= A
 Ene=              24
 Spin= Alpha
 Occup=    0.00000
   1    6.2888452752594e-13
   2    4.6009667524878e-12
   3    -1.9674955105603e-11
   4    -5.1900395506847e-13
   5    -0.037029502603464
   6    -3.8980234243746e-13
   7    -1.1935628296732e-11
   8     -0.30765550168535
   9    -5.7061452510928e-12
  10    3.0763329213843e-13
  11    -1.1155660436703e-12
  12    -0.009129474195566
  13    -2.8329283832394e-12
  14      -0.1613276278501
  15    8.3391885053911e-13
  16    -4.9688313025698e-11
  17    9.7370733261147e-11
  18    -1.0804439308108e-11
  19     -0.71639618307981
  20    1.1735923428661e-12
  21    7.0588556727197e-12
  22      0.92564053559466
  23    3.6152113533034e-11
  24    1.1500621249623e-11
  25    8.6045144567673e-12
  26    0.0047713600515877
  27    -9.9125422730771e-13
  28     -0.72418458943219
  29    -2.7434401599106e-11
  30    -3.9632873202173e-11
  31    5.6276550786632e-13
  32    -0.057201523023946