[Molden Format]
made by pyscf v[2.0.1]
[Atoms] (AU)
O   1   8     0.00000000000000     0.00000000000000     0.00000000000000
O   2   8     2.75227162082039     0.00000000000000     0.00000000000000
H   3   1     3.06432366844540     0.00000000000000     1.80733789576484
H   4   1    -0.31205204762501     1.56520053095466    -0.90366894788242
[GTO]
1 0
 s    6 1.00
             5484.6717   0.001831099805527
             825.23495   0.013950098518422
             188.04696    0.06844509273075
               52.9645    0.23271427528445
              16.89757    0.47019295006289
             5.7996353    0.35852086192309
 s    3 1.00
             15.539616   -0.11077750382508
             3.5999336   -0.14802630511126
             1.0137618     1.1307670390447
 s    1 1.00
             0.2700058                   1
 p    3 1.00
             15.539616   0.070874299543311
             3.5999336    0.33975279781076
             1.0137618    0.72715859531445
 p    1 1.00
             0.2700058                   1
 d    1 1.00
                   0.8                   1

2 0
 s    6 1.00
             5484.6717   0.001831099805527
             825.23495   0.013950098518422
             188.04696    0.06844509273075
               52.9645    0.23271427528445
              16.89757    0.47019295006289
             5.7996353    0.35852086192309
 s    3 1.00
             15.539616   -0.11077750382508
             3.5999336   -0.14802630511126
             1.0137618     1.1307670390447
 s    1 1.00
             0.2700058                   1
 p    3 1.00
             15.539616   0.070874299543311
             3.5999336    0.33975279781076
             1.0137618    0.72715859531445
 p    1 1.00
             0.2700058                   1
 d    1 1.00
                   0.8                   1

3 0
 s    3 1.00
             18.731137    0.03349459952309
             2.8253937    0.23472694665786
             0.6401217    0.81375731841339
 s    1 1.00
             0.1612778                   1
 p    1 1.00
                   1.1                   1

4 0
 s    3 1.00
             18.731137    0.03349459952309
             2.8253937    0.23472694665786
             0.6401217    0.81375731841339
 s    1 1.00
             0.1612778                   1
 p    1 1.00
                   1.1                   1

[5d]
[7f]
[9g]

[MO]
 Sym= A
 Ene=               0
 Spin= Alpha
 Occup=    2.00000
   1    -2.3772971150847e-05
   2    -0.00037322084258051
   3    0.0024545791928384
   4    0.00029116957400285
   5    6.5236867161805e-05
   6    9.4856087900592e-06
   7    0.0018856442764773
   8    1.1861647168451e-06
   9     8.23204385518e-05
  10    -0.00010253259718987
  11    8.630747013075e-05
  12    -6.6813514372951e-05
  13    3.9668109654971e-05
  14    -3.8830794214563e-05
  15      0.99586234359602
  16     0.021926949336067
  17    -0.0079855499713101
  18    -0.0010902193719187
  19    -0.00049597055021883
  20    0.0017787275276225
  21    0.0024511813955814
  22    -0.00048404212105376
  23    -0.00086144764585707
  24    0.00071423346602795
  25    0.00015073857735944
  26    -1.1886575188486e-05
  27    -0.00072033369870355
  28    1.5329120069845e-05
  29    -0.0003162705589218
  30    0.0013641497467397
  31    3.0547759052218e-05
  32    -1.2239640774071e-05
  33    0.0011782706726547
  34    -0.00036412029355859
  35    0.00052748776850991
  36    4.9443180121709e-05
  37    7.9891154556593e-06
  38    -7.5022653466196e-06
 Sym= A
 Ene=               1
 Spin= Alpha
 Occup=    2.00000
   1      0.99586003818193
   2      0.02193228519805
   3    -0.0079791271574825
   4    0.0010881151988874
   5    0.0012930936180438
   6    -0.0013091071493987
   7    -0.0024526243606098
   8    -0.00098736443344075
   9    1.8582867153167e-05
  10    0.00038739977392942
  11    6.2280084924489e-05
  12    -0.00022939378422513
  13    -0.00090903020360136
  14    -0.00013825676575521
  15    -2.367511711112e-05
  16    -0.00037354672473118
  17    0.0024543329234581
  18    -0.00029050858481387
  19    4.0797927714632e-05
  20    5.128547236554e-05
  21    -0.0018849338553335
  22    7.1831482266638e-05
  23    -4.0780749958777e-05
  24    3.709697355419e-05
  25    7.6556663850299e-05
  26    2.6329124762346e-05
  27    0.00012035727053937
  28    -5.5334137145676e-05
  29    -0.00036462165520742
  30    0.00052726944558697
  31    -4.943591363159e-05
  32    -2.5034948975614e-06
  33     1.06922036516e-05
  34    -0.00031713793421269
  35    0.0013632733831798
  36    -3.061359216796e-05
  37    0.0010143661186678
  38    -0.0005994659274892
 Sym= A
 Ene=               2
 Spin= Alpha
 Occup=    2.00000
   1    -0.0059310961495281
   2     0.014410705271024
   3     0.034391331234003
   4     0.022906093623833
   5    -0.023158551422142
   6    -0.015102758363005
   7     0.024586223055522
   8    -0.033856199966015
   9    -0.024496630806723
  10    0.0020577280948422
  11    0.0031446122595711
  12    0.00084296089157604
  13    -0.00079208252709087
  14     0.014106301690826
  15     0.097654440696993
  16     -0.22904398406624
  17     -0.26288771395655
  18    -0.086354851366661
  19      0.57128416716966
  20      0.18279293058421
  21    -0.065644934487015
  22      0.41628411909267
  23      0.11911179579673
  24    0.0054370288360582
  25    -0.004547588010371
  26     0.019265653915403
  27    0.0016121437882055
  28    -0.0082472346871298
  29     0.037560127247538
  30     0.045025381111616
  31    -0.0022705330753218
  32     0.017723801657575
  33     0.002461471120646
  34    -0.018533610669621
  35    -0.025357345697401
  36    0.0014881359109146
  37    0.00013855994702845
  38    -0.0013723102095856
 Sym= A
 Ene=               3
 Spin= Alpha
 Occup=    2.00000
   1     -0.15889296302341
   2      0.36866934678356
   3      0.44133610078355
   4     -0.14447352680571
   5    -0.091719680266807
   6      0.44975792173961
   7     -0.10121804622488
   8    -0.050590172765184
   9      0.32114534138425
  10    -0.0015275094830607
  11    0.0093226490884832
  12     0.016667141762375
  13    -0.00017930509305211
  14    -0.0050463790758781
  15    0.0077685764173162
  16    -0.021449764978239
  17     -0.02223848712984
  18     0.044342583105822
  19    0.0068217834139728
  20    -0.023457660229398
  21     0.047485042487035
  22     0.009279197309152
  23    -0.032557645272791
  24    -0.0035887256017569
  25    -0.0099897623873918
  26    0.0010480240969126
  27    0.0027061180390366
  28    0.0025237871957041
  29    -0.023368226387669
  30    -0.0054446037052503
  31    0.0008200969750725
  32    0.00032590987998062
  33    0.00099745144393523
  34    -0.063596262488504
  35    -0.064178281659916
  36    -0.0044648478363437
  37    0.0014171850481849
  38      0.01129301815934
 Sym= A
 Ene=               4
 Spin= Alpha
 Occup=    2.00000
   1     -0.11432137893212
   2       0.2550384400602
   3      0.18420255076124
   4    -0.069598621367096
   5      0.37294280900486
   6     -0.21228061625425
   7    -0.022740643713616
   8       0.2189570627177
   9     -0.12429640674872
  10    -0.0025101756844655
  11    -0.0011518518863771
  12    -0.017279517273827
  13    -0.018396319520612
  14    0.0011201065148692
  15    0.0040271244465346
  16    -0.010213932939491
  17     -0.03790096117784
  18     0.027253880265359
  19    -0.013051594933493
  20    0.0021120654541901
  21     0.036787821225203
  22    -0.026595524006615
  23     0.008838507644878
  24    -0.0017850523436948
  25    0.0058070078442106
  26    -0.0013877266810437
  27    0.0022313742626806
  28    -0.0077758718494622
  29    0.0085811778352034
  30    0.0061861200766096
  31    0.0017074271386267
  32    -0.00073523219596888
  33     -0.00022404364944
  34      0.30509496541367
  35      0.10407695349559
  36    0.0043862728846874
  37    -0.029584751625604
  38      0.01743662110984
 Sym= A
 Ene=               5
 Spin= Alpha
 Occup=    2.00000
   1    0.0040271462576391
   2     -0.01021392653604
   3    -0.037900956229744
   4    -0.027253881676095
   5    -0.0046966849330084
   6    -0.012359030355067
   7     -0.03678782065932
   8    -0.0056433786742567
   9    -0.027451641894411
  10    -0.00018539371419684
  11    0.0096376073469532
  12    -0.00032128747876922
  13    0.0031549369354121
  14    -0.001141083342304
  15     -0.11432119608017
  16      0.25503842392424
  17       0.1842025246975
  18     0.069598616195515
  19    0.0026308754390837
  20      0.42911827106223
  21     0.022740641427174
  22    0.0018345955506687
  23      0.25177059244867
  24     0.025222171016702
  25    -0.0015459675136025
  26    0.0012087093062371
  27    -0.0023850419328244
  28    0.00043748150489694
  29      0.30509496825417
  30      0.10407695618114
  31    -0.0043862731298021
  32    0.00030817724155288
  33    -0.034339456515164
  34    0.0085811831049023
  35    0.0061861239376241
  36    -0.001707427328975
  37    -0.00056164357686697
  38    -0.00052470725582753
 Sym= A
 Ene=               6
 Spin= Alpha
 Occup=    2.00000
   1    0.0077686865614664
   2    -0.021449914112776
   3    -0.022238765005909
   4    -0.044342771506144
   5    -0.016903813664754
   6     0.017636782753123
   7     -0.04748521798847
   8    -0.023555847493298
   9     0.024315040107064
  10    -0.002095121942133
  11    -0.0071805687378227
  12    0.0020437634851269
  13    0.0035684680003602
  14    0.0073893758349569
  15     -0.15887645580723
  16      0.36867167993742
  17      0.44133818805749
  18      0.14447424430553
  19      0.34363715302417
  20     -0.30431197502315
  21       0.1012186432448
  22       0.2528214416804
  23     -0.20438602302127
  24    -0.012192984794968
  25    0.0090316579109849
  26    0.0095566829410606
  27    -0.0063370302851325
  28    -0.0055503926650867
  29    -0.063596540503175
  30    -0.064178620626668
  31    0.0044648668692765
  32     0.010488484510326
  33    -0.0044191955356732
  34     -0.02336806471231
  35    -0.0054443734692029
  36    -0.00082010855172514
  37    0.0010267718877228
  38    -0.00021646781188381
 Sym= A
 Ene=               7
 Spin= Alpha
 Occup=    2.00000
   1        0.097650891454
   2     -0.22904723038251
   3     -0.26289140246539
   4     0.086356001667351
   5      0.44394611793915
   6      0.40334640428308
   7     0.065645758621898
   8      0.31129629775321
   9      0.30095405097257
  10    -0.016175972848722
  11    0.0048684435895691
  12     0.004856840091293
  13    -0.010866134321159
  14    0.0080619851367598
  15    -0.005931162432484
  16     0.014410840424746
  17     0.034391468366247
  18     -0.02290641109719
  19    -0.024658691144504
  20    -0.012504303919851
  21    -0.024586581610849
  22    -0.038142870880903
  23    -0.017071734197082
  24    -0.0003749299227633
  25    -0.010644025339459
  26    -0.0007788419638926
  27    -0.0021966264505404
  28    -0.0097764845502712
  29    -0.018533410272502
  30    -0.025357292135431
  31    -0.0014881415399082
  32    -0.0011191777056172
  33    0.00080614409333968
  34     0.037560624805949
  35     0.045025905270541
  36    0.0022705687097612
  37     0.010993584613593
  38     0.014118432922261
 Sym= A
 Ene=               8
 Spin= Alpha
 Occup=    2.00000
   1    -0.057417038294705
   2      0.11829137821126
   3     0.067970094752041
   4      0.40541939890741
   5    -0.0081292578225668
   6    0.00069729030632933
   7      0.25553985512494
   8    0.0095528705636816
   9    -0.0022619181195605
  10    -0.017787430844255
  11    -0.0047198115094808
  12    0.0022020634293986
  13     0.035030581977239
  14     0.012762349621663
  15     -0.05741706851838
  16      0.11829142540246
  17      0.06797015200085
  18     -0.40541938671165
  19    -0.0034608497837641
  20    -0.0073888230194793
  21     -0.25553984768154
  22     0.002817486462437
  23    0.0094039639875958
  24    -0.022181150089601
  25    -0.013412425474904
  26    -0.00072708523032415
  27     0.032493866752414
  28    -0.0022936984766508
  29    -0.026141232589362
  30    -0.051646995502266
  31    -0.008759696220334
  32    -0.00041162288598521
  33    -0.0011967868417641
  34     -0.02614122438875
  35    -0.051646983588409
  36    0.0087596963721501
  37    -0.0012422573152115
  38    0.00024191979148417
 Sym= A
 Ene=               9
 Spin= Alpha
 Occup=    0.00000
   1    -0.0079636642129682
   2      -1.4691716818995
   3       3.3678356876761
   4    0.0087414118190116
   5    -0.060339110733424
   6      0.32102168067873
   7      0.54828732514278
   8       1.1300907361681
   9      -1.0081706696022
  10      -0.2728531557248
  11     0.067662426150453
  12     -0.44778733090576
  13    -0.027610385856805
  14     -0.34280781034446
  15     0.034413562226883
  16       0.1294178937229
  17     -0.93885594093002
  18      0.10400273569091
  19    -0.010838183862569
  20     0.018604389201451
  21      0.77460466758589
  22    -0.048648104620114
  23      0.11957470203178
  24      0.10001469637338
  25    -0.048081657294472
  26    -0.0020574624160742
  27     -0.19836050888945
  28     0.031779091615736
  29     0.032331646993453
  30    -0.043617621700026
  31    -0.044589962187899
  32    -0.0040920704890727
  33     0.013653384816877
  34      -1.0144666219683
  35      -1.1779495465686
  36    -0.057740166548501
  37      0.29992485922404
  38     -0.14506551653279
 Sym= A
 Ene=              10
 Spin= Alpha
 Occup=    0.00000
   1     0.025535978505522
   2      0.11610225388253
   3     -0.71618199157411
   4    -0.065549953365295
   5    0.0057367424802897
   6    -0.015523648198465
   7     -0.60683902694907
   8     0.046360643193166
   9    -0.078350060982235
  10     0.091450340023259
  11    -0.043884678936855
  12      0.01236368363724
  13     -0.14096365729766
  14     0.014348976751663
  15    -0.00024846206813854
  16      -1.4651733783152
  17       3.2562405927157
  18     -0.13681248149498
  19      0.18948835961545
  20     -0.14528093107837
  21     -0.20854471150292
  22     -0.23365314191447
  23       1.4543121845668
  24       0.4912087885613
  25      0.37644568568946
  26     -0.01957068341332
  27      0.25183801243264
  28     0.053501571085425
  29      -1.0510789630221
  30      -1.2338885586778
  31     0.038174144712884
  32     0.022474755621962
  33      0.37053745167821
  34     0.038058365225248
  35    -0.025233311167957
  36     0.042342929800243
  37    0.0044257195842344
  38    -0.0080498426558763
 Sym= A
 Ene=              11
 Spin= Alpha
 Occup=    0.00000
   1    -0.031334422161496
   2    -0.054058827329498
   3      0.58682907596724
   4     -0.75056409582519
   5     0.035733352822248
   6      0.14901459637524
   7       1.5840422364391
   8     -0.08518681929782
   9      -0.1356168359244
  10      0.14498282535314
  11        0.353794468372
  12    -0.051087498940348
  13     -0.12273616024301
  14       0.0172464338267
  15     0.020202654336317
  16     0.088638843828679
  17     -0.88136069841867
  18     0.071882258375651
  19    0.0026937762736668
  20    -0.0017679784999016
  21      0.63342411964654
  22    -0.0011968171267493
  23    -0.0036369352691233
  24     0.024144730810108
  25     0.036532300703289
  26    0.0023951522145376
  27    -0.081613245155741
  28    0.0015656406124768
  29     0.059465289914509
  30     -0.13105534286266
  31    -0.020037535614324
  32    -0.00020740984657803
  33    0.0074001119126542
  34    -0.099016951391525
  35      0.21742451201342
  36     -0.10731995672863
  37     0.036746063293243
  38     0.025541082551573
 Sym= A
 Ene=              12
 Spin= Alpha
 Occup=    0.00000
   1    -0.013149430872004
   2     -0.02595293676798
   3      0.28140391538684
   4     0.026628429050828
   5    -0.0098462709494026
   6     0.026002634269096
   7       0.1946413006208
   8    -0.034115659353393
   9      0.14444524251359
  10    0.0016142100887137
  11     0.034163523267354
  12     0.005869512965077
  13     0.021245988411342
  14    0.0048932447371802
  15    0.00028187442087089
  16     0.049777911882964
  17      0.21839401548937
  18     0.036888571656329
  19    -0.010351903427981
  20     -0.07523315396625
  21      0.30330391170409
  22    -0.037587747695055
  23    -0.023603954463569
  24     -0.18653338500971
  25     0.051378011845376
  26     -0.03161592300657
  27    -0.033985705255394
  28    -0.0047171906821326
  29        1.118005585896
  30       -1.517108770541
  31     -0.41030122190059
  32       0.1595720193158
  33      0.13810225730172
  34     0.010064844354657
  35       0.1126660134489
  36    0.00028590242187576
  37    -0.013580038136299
  38    0.0011416227751635
 Sym= A
 Ene=              13
 Spin= Alpha
 Occup=    0.00000
   1    0.00023589849370156
   2     0.049951048240533
   3      0.21825048201661
   4    -0.037050177837882
   5    -0.070323685273321
   6     0.027510107810195
   7     -0.30343724639515
   8     -0.04009676083988
   9    -0.023211188458742
  10     0.070733289422062
  11     0.030298808032229
  12      0.13703364810293
  13      0.11424583926759
  14    -0.042424966962796
  15    -0.013121434619562
  16    -0.025862815993316
  17      0.28092378492767
  18    -0.026646146084846
  19     0.017601364433096
  20      -0.0214331362856
  21     -0.19433903684115
  22       0.1079218320324
  23     -0.10117031056558
  24    -0.018436153007762
  25     0.012667298101058
  26    -0.0074108114043541
  27    0.0097026346832218
  28    -0.032096663711764
  29     0.010020058332131
  30      0.11261994959955
  31    -0.00035322146380103
  32    -0.0057990624730595
  33    -0.012341726376172
  34       1.1146012580052
  35      -1.5137627076251
  36      0.41171875764659
  37      0.20634722344089
  38     0.078627363692349
 Sym= A
 Ene=              14
 Spin= Alpha
 Occup=    0.00000
   1     0.088835199882557
   2     -0.42158564217942
   3     -0.34398834862005
   4      0.13453012504874
   5     -0.52693547868584
   6      0.30232982489355
   7     0.055516106372692
   8     -0.34416300904892
   9      0.19652761066636
  10     0.013699636722256
  11    -0.0079440479648724
  12     0.068938459766204
  13      0.05826767313557
  14     0.015036370065785
  15    0.0048687737915921
  16    -0.033581755754299
  17    -0.0025363023472588
  18    0.0015266537741604
  19     0.013525711936931
  20    0.0063428796836635
  21    -0.016673269168654
  22     0.026840978149706
  23    -0.0089114945252955
  24    0.00028419171269179
  25    0.00054586388693186
  26    -0.0016681641472765
  27    -0.0046992806045622
  28    -0.0029512816154229
  29    -0.023178207261276
  30    -0.0093606416971658
  31    0.00022406762558439
  32    -0.00037069092529829
  33    -0.00062476656019622
  34      0.88987856722311
  35      0.55096072727234
  36     0.017232471675196
  37    -0.067398060588256
  38     0.040391194539415
 Sym= A
 Ene=              15
 Spin= Alpha
 Occup=    0.00000
   1    -0.0033991339057169
   2    -0.025676082109715
   3     0.052533616586344
   4    0.0020467001993102
   5    -0.012506850459457
   6      -0.0393559434772
   7     0.067360222123314
   8     -0.10649844274014
   9     -0.28665406692378
  10     0.004024053983475
  11     -0.16214148872984
  12    -0.0086816304461381
  13     0.012342554728811
  14    -0.033976594690784
  15    -0.035977013023206
  16      0.13338527521607
  17      0.26429527207825
  18      0.11106600958664
  19     -0.33552966221624
  20     -0.70440917200582
  21    0.0073037685160571
  22      0.41602288503624
  23       1.3552693367652
  24      0.12141658696046
  25     -0.51206363449911
  26     0.032537546517617
  27    -0.030950332769569
  28    -0.042124743741948
  29     -0.39119793525599
  30     -0.47899342420646
  31      0.12405268508874
  32    -0.040971748821799
  33     0.010700572439842
  34    -0.022753325719698
  35     0.064160929873284
  36    -0.0068076172864514
  37    0.0054003753812144
  38     0.024960029841045
 Sym= A
 Ene=              16
 Spin= Alpha
 Occup=    0.00000
   1    -0.020835177493954
   2    -0.097940421301385
   3      0.91778903898395
   4     0.070311869161059
   5    0.00068375342230747
   6    -0.00066843588368075
   7      0.66613429524929
   8    0.0039118675301733
   9     0.011985850150167
  10    -0.051117322953748
  11    -0.0077205321436502
  12    -0.019580747071104
  13     0.071177452667142
  14     0.033361810620935
  15     0.031179123866355
  16      0.19028835615872
  17     -0.89030791251905
  18      -0.7318776770501
  19     -0.16223094857485
  20     0.055148426636844
  21       1.5688013546151
  22      0.17788708321052
  23     -0.15426502054212
  24     -0.19061143080943
  25      -0.1730351324307
  26     0.078578265637027
  27      0.15369124873252
  28      0.32732983277941
  29      0.22128443147818
  30    -0.084084602891395
  31     -0.11872628476094
  32    -0.041908478447233
  33    -0.064491596385806
  34    -0.062903207384121
  35       0.1306818022267
  36    -0.023536862600228
  37    -0.0059942649074762
  38    0.0036453431154267
 Sym= A
 Ene=              17
 Spin= Alpha
 Occup=    0.00000
   1    -7.7565869667422e-06
   2    -0.016347563925361
   3     0.010669998695859
   4    -0.00046367942011197
   5    -0.0023887203123197
   6    -0.017155543871776
   7     0.023860610335483
   8    -0.018779304621729
   9    -0.017772517847899
  10    -0.0077561506991728
  11    -0.021678552825494
  12    0.0063169919791917
  13     0.018626216955013
  14    0.00056146989926088
  15    -0.063266494972581
  16      0.23904727732479
  17      0.85002240637544
  18     0.097616504851367
  19    0.00075656784827736
  20      0.53073003614554
  21       0.1471121257856
  22    0.0001910670637441
  23       0.6301733084301
  24      0.45669708187516
  25      0.14050002501797
  26    0.0011266691458688
  27    0.0041126706524537
  28    -0.00078851608637568
  29     -0.77964707264805
  30      -0.4968649485984
  31      0.19583660406703
  32    -0.0041485069551968
  33       1.4635939250539
  34     0.010133265042649
  35     0.037030752637038
  36    0.0053272194863235
  37    -0.0099436162486806
  38    0.0015729323165997
 Sym= A
 Ene=              18
 Spin= Alpha
 Occup=    0.00000
   1     0.036115664608239
   2      0.13385082598603
   3      -1.0239887832072
   4     -0.13379436577265
   5     0.017194002239575
   6     -0.01486716888195
   7     -0.85883593618947
   8    -0.089500609504094
   9     0.031724163138257
  10      0.12190857935827
  11    0.0031537212046862
  12     0.013149059402551
  13     -0.18882675886004
  14    -0.033337327659192
  15     0.018024721880206
  16     -0.89705795923277
  17       1.6328580628517
  18      0.25438076353385
  19     -0.64032387305817
  20      0.31848825160593
  21       -1.218441677873
  22      0.79302914881623
  23      -0.4524757608448
  24     -0.21675124246255
  25     -0.21816825789701
  26     0.098745886594078
  27      0.26934901680904
  28      0.19168137678418
  29     0.076914509547559
  30     0.060899952590291
  31      0.10200905346038
  32    -0.095598497457047
  33    -0.045422054810153
  34     0.092620918775407
  35     -0.26788742853921
  36    0.00052613587650718
  37     0.023883572418003
  38    -0.011294423161875
 Sym= A
 Ene=              19
 Spin= Alpha
 Occup=    0.00000
   1    -0.063246125495717
   2      0.23875051398925
   3      0.84836491013406
   4    -0.097423380690045
   5      0.45887655777027
   6     -0.26712152462067
   7     -0.14564833957899
   8      0.54232644390641
   9     -0.32085364699324
  10    -0.056020173461467
  11     0.071573776766083
  12      -0.3476907666123
  13     -0.29220769846798
  14     -0.12072239103321
  15    8.1304881754905e-05
  16    -0.016199941930078
  17    0.0088818583362775
  18    0.00056782312421677
  19    -0.016022031033852
  20    0.0067453985233527
  21     -0.02287534033318
  22    -0.024794013455385
  23    -0.0059486723293774
  24    -0.015908807740861
  25    -0.011855581467864
  26    0.0010505108836803
  27     0.013845906191725
  28     0.018371511460619
  29     0.010067028926045
  30     0.036904636619704
  31    -0.0054366057042795
  32    -0.0036163768201862
  33    -0.0094366349823619
  34     -0.78571364428341
  35     -0.48819213959399
  36     -0.19724752142489
  37       1.2802031734308
  38     -0.70756452547747
 Sym= A
 Ene=              20
 Spin= Alpha
 Occup=    0.00000
   1    0.0015853312733486
   2    -0.011906121601338
   3    -0.063223541907578
   4    0.0068983666600753
   5    -0.047657840844675
   6    -0.079048499669471
   7     0.043347825384957
   8     -0.13078205316406
   9      -0.2018086325805
  10       0.1618156637381
  11     0.022164736200647
  12     -0.12777464869225
  13     0.088903137981032
  14     0.019708698668024
  15    0.0026795540999583
  16    0.0045606505753791
  17    -0.053335858037013
  18    0.0027115691304659
  19    0.0017571284844528
  20    0.0074868682427837
  21     0.028645819345282
  22    0.0031679873736898
  23     0.046645542531334
  24    -0.0017749904166238
  25    -0.017809169811803
  26    0.0046319647305557
  27    -0.0032681401522472
  28    -0.0054554899002583
  29    -0.0022229393365327
  30    -0.0015946197443119
  31    -0.0037432887080418
  32    -0.00036664049321954
  33    -0.001539951849327
  34     -0.16570155563925
  35      0.26182490040069
  36    -0.032720473844364
  37      0.49985940738484
  38      0.97722427253174
 Sym= A
 Ene=              21
 Spin= Alpha
 Occup=    0.00000
   1    -0.010981328293449
   2    -0.042134613859369
   3      0.28209817002163
   4     0.034287069426746
   5    0.0049468544757023
   6     0.033870768878603
   7      0.25016609605105
   8    -0.048111326752048
   9       0.0817914033375
  10    -0.040285468290154
  11     0.086439454258098
  12    0.0046209174081782
  13     0.059289832739661
  14     0.021603587556866
  15    -0.028443361585679
  16      0.50753384018073
  17     -0.62266653502718
  18     0.066971493134995
  19     -0.36180493345734
  20     -0.15230185943593
  21      0.23192389093371
  22      0.42571464029138
  23      0.26727883899304
  24      0.18579746932304
  25       0.8456181907994
  26     0.017456518868097
  27    0.0092540595470168
  28      0.37490746576519
  29     -0.19661109547354
  30     -0.01188761927709
  31     -0.14784385765328
  32    -0.052124885955476
  33      0.12521525557811
  34    0.0076528899094568
  35     0.047595094593234
  36    -0.0079058280413948
  37    -0.013864209257256
  38    -0.0013504581536341
 Sym= A
 Ene=              22
 Spin= Alpha
 Occup=    0.00000
   1    0.0061273387451422
   2    0.0080168289546838
   3     -0.25430683591356
   4    -0.062001342220554
   5    -0.010480380940421
   6    0.0082480565903805
   7     -0.21064554413439
   8    -0.057185569954608
   9     0.040126689554487
  10    -0.018633601366717
  11      0.10537430840507
  12    -0.0027075823736008
  13     0.016351801000933
  14     -0.18464359785933
  15    -7.2242638490395e-05
  16     0.033340375675287
  17     0.032607766465359
  18    -0.023883243126752
  19    0.0026960123724419
  20    0.0047503755734493
  21     0.020145515100229
  22    -0.065156078655521
  23     0.060540357598104
  24    0.0039277913883449
  25      0.01398748740096
  26    0.0077274550246028
  27      0.01651612236384
  28    -0.013175227596451
  29    -0.018491145057576
  30    -0.044057521826151
  31    -0.010823715422708
  32    0.0056496745661302
  33     0.010091174126917
  34     -0.40422556231855
  35       0.6384926110076
  36       1.0350507593723
  37     0.047297802029985
  38    -0.059818231462921
 Sym= A
 Ene=              23
 Spin= Alpha
 Occup=    0.00000
   1    0.0025400694540323
   2    0.0038620377523272
   3    -0.050004847067125
   4    -0.0024085456228258
   5    0.0071991913873018
   6    -0.002440143445761
   7    -0.025921400626248
   8     0.041120410271677
   9     -0.01967976438863
  10    -0.0013601774575712
  11    -0.0044164612342345
  12     0.005301127708842
  13    -0.0021263893144475
  14     0.018219453465688
  15    -0.0002272878495716
  16    -0.0044742692047403
  17    -0.036750229993878
  18    -0.0036024580218842
  19    -0.092421834978296
  20     0.012740046337758
  21    -0.035589477306639
  22     -0.24065687681128
  23     0.005466403106389
  24     0.029043783225711
  25    -0.0010856705708727
  26     -0.22414824376634
  27     0.005582548355442
  28    -0.029134668178575
  29     -0.17689447588519
  30      0.23230632985332
  31     0.032540599533951
  32       1.0982936885919
  33    -0.011936964543585
  34    -0.0018496595325176
  35    0.00061455834205438
  36    0.0039170645832967
  37    -0.0019338155823031
  38    0.00051020411810772
 Sym= A
 Ene=              24
 Spin= Alpha
 Occup=    0.00000
   1     0.019759285167326
   2     -0.91381800344455
   3       1.6416201379755
   4      -0.2467654894242
   5    -0.018645973275409
   6     -0.70889535074162
   7       1.2164426350228
   8    -0.036117903800179
   9      0.91291289144114
  10     -0.21848396541029
  11      -0.2735968947391
  12     0.098211489967102
  13      0.26973286688151
  14      0.11439550319525
  15     0.036277635036166
  16      0.13513204413185
  17      -1.0272400867511
  18      0.13390869112399
  19    -0.004545995360808
  20     0.022441463318618
  21      0.86294274923872
  22    -0.013024635484507
  23      -0.0922852937797
  24     0.098024586214996
  25     0.030742631461562
  26    -0.0030096059585703
  27     -0.20372158446368
  28     0.013747935385082
  29     0.092695129758497
  30     -0.26991276192266
  31    -0.00078471142747098
  32    0.0019446975672163
  33     0.026689948987651
  34     0.089928866920645
  35     0.069744900227516
  36      -0.1041195335005
  37    -0.088681338071232
  38    -0.056094369263568
 Sym= A
 Ene=              25
 Spin= Alpha
 Occup=    0.00000
   1     0.047247324131391
   2     0.052690306642782
   3     -0.92217434445365
   4     -0.20203908363732
   5    0.0050740366830638