[Molden Format]
made by pyscf v[2.0.1]
[Atoms] (AU)
O   1   8     0.00000000000000     0.00000000000000     0.00000000000000
O   2   8     2.75227162082039     0.00000000000000     0.00000000000000
H   3   1     3.06432366844540     0.00000000000000     1.80733789576484
H   4   1    -0.31205204762501     1.16173440591458    -1.38450115188900
[GTO]
1 0
 s    6 1.00
             5484.6717   0.001831099805527
             825.23495   0.013950098518422
             188.04696    0.06844509273075
               52.9645    0.23271427528445
              16.89757    0.47019295006289
             5.7996353    0.35852086192309
 s    3 1.00
             15.539616   -0.11077750382508
             3.5999336   -0.14802630511126
             1.0137618     1.1307670390447
 s    1 1.00
             0.2700058                   1
 p    3 1.00
             15.539616   0.070874299543311
             3.5999336    0.33975279781076
             1.0137618    0.72715859531445
 p    1 1.00
             0.2700058                   1
 d    1 1.00
                   0.8                   1

2 0
 s    6 1.00
             5484.6717   0.001831099805527
             825.23495   0.013950098518422
             188.04696    0.06844509273075
               52.9645    0.23271427528445
              16.89757    0.47019295006289
             5.7996353    0.35852086192309
 s    3 1.00
             15.539616   -0.11077750382508
             3.5999336   -0.14802630511126
             1.0137618     1.1307670390447
 s    1 1.00
             0.2700058                   1
 p    3 1.00
             15.539616   0.070874299543311
             3.5999336    0.33975279781076
             1.0137618    0.72715859531445
 p    1 1.00
             0.2700058                   1
 d    1 1.00
                   0.8                   1

3 0
 s    3 1.00
             18.731137    0.03349459952309
             2.8253937    0.23472694665786
             0.6401217    0.81375731841339
 s    1 1.00
             0.1612778                   1
 p    1 1.00
                   1.1                   1

4 0
 s    3 1.00
             18.731137    0.03349459952309
             2.8253937    0.23472694665786
             0.6401217    0.81375731841339
 s    1 1.00
             0.1612778                   1
 p    1 1.00
                   1.1                   1

[5d]
[7f]
[9g]

[MO]
 Sym= A
 Ene=               0
 Spin= Alpha
 Occup=    2.00000
   1    -6.9658747242437e-05
   2    -0.00025619823652286
   3    0.0026269541370967
   4    0.00053600821624208
   5    9.8693793507765e-05
   6    -0.00010616027238185
   7    0.0021479558358626
   8    8.1001937685178e-05
   9    -6.1034151626545e-05
  10    -3.7728874940967e-05
  11    0.00013154768273385
  12    -9.1598521650366e-05
  13    4.7247294379656e-05
  14    -4.601102764068e-05
  15      0.99674494301238
  16     0.019849034267029
  17     -0.01046362794355
  18    -0.0019018225407887
  19    -0.0012904819773854
  20    0.0034753169984347
  21    0.0018763303722633
  22    -0.0010423212447934
  23    0.00031471229130376
  24    0.00077197881959119
  25    9.6517959916017e-05
  26    -2.6744092157836e-05
  27    -0.00069386396695264
  28    2.7417452758077e-05
  29    3.2065637573077e-05
  30    0.0017334708417306
  31    4.6755476301686e-06
  32    -3.8041691947766e-05
  33    0.0011986196031684
  34    -0.00027700613242853
  35    0.00050635205661183
  36    4.6264094832128e-05
  37    5.116855739519e-06
  38    -1.2363450261091e-05
 Sym= A
 Ene=               1
 Spin= Alpha
 Occup=    2.00000
   1      0.99542608974885
   2     0.022932063496375
   3    -0.0067880041500887
   4    0.00069840266318533
   5    0.00079356108533377
   6    -0.00055249720582878
   7    -0.0027262649015882
   8    -0.00082638717316703
   9    0.0011348605688002
  10    0.00051398437502447
  11    0.0001317010945303
  12    -0.00021663297077036
  13    -0.00083571449049242
  14    -0.00011327184100105
  15    -3.8932155231758e-06
  16    -0.00043836951786991
  17    0.0024298804574758
  18    -0.00017061576609504
  19    4.3504514618863e-05
  20    -2.1953792894527e-05
  21    -0.0017541670858013
  22    7.1049120186967e-05
  23    -0.00012227065039752
  24    1.6868029996486e-05
  25    6.543751276435e-05
  26    3.2245055829753e-05
  27    0.00011731360583989
  28    -3.6140924874827e-05
  29    -0.00043798061065499
  30    0.0004770129265954
  31    -3.643095250368e-05
  32    -2.4194459662769e-06
  33    1.9906908454431e-05
  34    -0.00049650810060033
  35      0.00119637861708
  36    -4.1839405158573e-05
  37    0.00075523572463135
  38    -0.00088508638513061
 Sym= A
 Ene=               2
 Spin= Alpha
 Occup=    2.00000
   1    -0.0030965590582841
   2    0.0070689276820445
   3     0.021541650702695
   4    0.0098277163157613
   5    -0.030380971036262
   6    -0.009733294731444
   7     0.010540316072618
   8    -0.046032548718172
   9    -0.017226170960453
  10     0.001052513112503
  11    0.00076309084785927
  12    0.0014801600650278
  13    -0.00012776542678263
  14     0.014822156664385
  15     0.046457700782191
  16     -0.10900444357765
  17     -0.12275404776759
  18    -0.040333057803209
  19      0.64804152148675
  20     0.086081786409907
  21    -0.031957544966296
  22       0.4716890541783
  23     0.054488242344012
  24    0.0017583987610007
  25    -0.0016755847950667
  26     0.020519955804437
  27    4.0797602321248e-05
  28    -0.0088613566492347
  29     0.018018433589837
  30     0.022709169421689
  31    -0.00089763379113687
  32     0.020195160228067
  33    0.00097200477058663
  34    -0.016398884440075
  35    -0.019350514036185
  36    0.00089859473258909
  37    -0.00052482136997004
  38    -0.0014115256704139
 Sym= A
 Ene=               3
 Spin= Alpha
 Occup=    2.00000
   1     0.045465214497217
   2     -0.10792851174385
   3     -0.12145516934627
   4     0.039908923367799
   5      0.55150439880461
   6      0.35156230166381
   7     0.031659150844721
   8      0.39620809922818
   9      0.26211409331123
  10    -0.016861500671005
  11    0.0044375881737944
  12    -0.005049036992547
  13    -0.010706205177375
  14    0.0078534110329319
  15    -0.0030732647197102
  16     0.007004913509792
  17      0.02146814554079
  18    -0.0096996191618811
  19    -0.029511746265159
  20    -0.012127971424886
  21    -0.010401244523653
  22    -0.046310680419631
  23    -0.016466602906791
  24    -0.00082673375195544
  25    -0.0089637657258092
  26    -0.0010890247139848
  27    -0.0011992740253719
  28    -0.011838219487377
  29    -0.016451388067196
  30    -0.019357399871246
  31    -0.0008950082313772
  32    -0.0013085520290093
  33    0.00074627207445987
  34     0.017833848839703
  35     0.022518940330003
  36    0.00088466021183072
  37     0.016096552111279
  38     0.012254867694833
 Sym= A
 Ene=               4
 Spin= Alpha
 Occup=    2.00000
   1      0.18291763486125
   2     -0.41885767978145
   3     -0.49894775996053
   4      0.16334958710055
   5      0.09984126327381
   6     -0.36660215075572
   7      0.11560109961445
   8     0.059149620857786
   9     -0.25393211318229
  10     0.005540639724362
  11    -0.0097327031525555
  12    -0.013088873604799
  13    0.0021797929181276
  14    0.0045947540874161
  15    -0.0089920057170606
  16     0.024796444276331
  17     0.027843416240271
  18    -0.049413866065612
  19    -0.0069372058691469
  20     0.021359016732252
  21    -0.053264680920925
  22    -0.0097557438338237
  23     0.028295147305963
  24    0.0039423588510817
  25     0.008009970426487
  26    -0.0010680624171652
  27    -0.002917705322153
  28    -0.002606261652891
  29     0.020280592315951
  30    0.0025215038018231
  31    -0.0013757394754529
  32    -0.0003083431068437
  33    -0.00089938843076239
  34     0.071700001714473
  35     0.073224558948631
  36    0.0050179524441528
  37    -0.00069104190843007
  38    -0.0068039088629833
 Sym= A
 Ene=               5
 Spin= Alpha
 Occup=    2.00000
   1    0.0041490987737103
   2    -0.0098703262073978
   3    -0.042114376067405
   4    -0.026871046761325
   5    -0.0041540690332308
   6    -0.010027284963414
   7    -0.036195084962865
   8    -0.0066333072610079
   9    -0.022786884499102
  10    -7.5857979273291e-05
  11     0.010306255458301
  12    -0.0002209760974098
  13    0.0031950743024638
  14    -0.0011005078059814
  15     -0.11473486266431
  16      0.25652631562214
  17      0.18509136252459
  18     0.069814318595591
  19    0.0024016617590862
  20      0.42813449445745
  21     0.023778072624371
  22    0.0012072069017568
  23      0.25230139954471
  24     0.024953124801796
  25    -0.0018166975161885
  26    0.00079494979425456
  27    -0.0023232783202225
  28    0.0004805518358862
  29      0.30462854517676
  30      0.10220031230887
  31    -0.0045571749982303
  32    0.00012915726847072
  33    -0.034388634016288
  34     0.013265673993432
  35     0.012191271803785
  36    -0.0013646359379893
  37    -0.00064552565489378
  38    -9.3620093575136e-06
 Sym= A
 Ene=               6
 Spin= Alpha
 Occup=    2.00000
   1    0.0089836580135094
   2    -0.024780719629862
   3    -0.027768545611801
   4    -0.049386492845957
   5    -0.0084934781821872
   6     0.020795570967394
   7    -0.053223265331414
   8    -0.010833668883917
   9     0.027901852082448
  10    -0.0034515887660349
  11    -0.0078085329710023
  12    0.0017433585862284
  13    0.0031997586982837
  14    0.0031904082360516
  15     -0.17532786668948
  16      0.41873663935061
  17       0.4985662784221
  18      0.16323633101166
  19       0.1608418110934
  20     -0.34477163016679
  21      0.11553622462601
  22      0.11913334503334
  23     -0.23240746997352
  24    -0.012479877538412
  25     0.010405856804858
  26    0.0035790877056798
  27    -0.0061972623438729
  28    -0.0027591529133969
  29    -0.071655212361146
  30     -0.07315484812113
  31     0.005015827949269
  32    0.0049551233108912
  33    -0.004756540849744
  34    -0.020325723352171
  35    -0.0025679205103301
  36    -0.0013731140490083
  37    0.00081301057161322
  38    -0.00049453402036636
 Sym= A
 Ene=               7
 Spin= Alpha
 Occup=    2.00000
   1     -0.11473341767802
   2      0.25652680226803
   3      0.18509185015186
   4    -0.069814440217934
   5      0.27703713978285
   6     -0.32642769772942
   7    -0.023778172175403
   8      0.16309942037381
   9     -0.19249915791499
  10    0.0096414778363182
  11    -0.0017005777803029
  12    -0.020275766300681
  13     -0.01116345974846
  14    0.00079959133102625
  15    0.0041492134819159
  16    -0.0098705050829075
  17    -0.042114647653884
  18     0.026871004234252
  19    -0.009627688418703
  20     0.005011366140375
  21     0.036195067553468
  22    -0.019728489594776
  23     0.013192128563926
  24    -0.00098363592184054
  25    0.0086024732434258
  26    -0.0014701989370008
  27    0.0026709726336574
  28    -0.0057816454974611
  29     0.013265779089624
  30     0.012191380269429
  31    0.0013646367864847
  32    -0.00050051981651409
  33    -0.00040776662552832
  34      0.30462848405828
  35      0.10220022668707
  36    0.0045571721502957
  37    -0.022005710877649
  38     0.026426192985927
 Sym= A
 Ene=               8
 Spin= Alpha
 Occup=    2.00000
   1    -0.057315992364854
   2      0.11823655098451
   3     0.066862968687779
   4      0.40546637465804
   5      -0.0063277224753
   6    0.0035352376859888
   7      0.25589423633226
   8    0.0065077735787348
   9    -0.0044320921143833
  10    -0.019287281751751
  11    -0.0086617855134012
  12    0.0025718296869489
  13     0.034192918165728
  14    0.0095218647828036
  15    -0.057316452774015
  16      0.11823703321746
  17     0.066863541069747
  18     -0.40546625093432
  19    -0.0025741545498291
  20    -0.0067758474592174
  21     -0.25589417538652
  22    0.0021369171764826
  23    0.0075781024645124
  24    -0.021762100438102
  25    -0.012755820156397
  26    -0.00083378222874275
  27     0.032764074744312
  28    -0.0017264873416706
  29    -0.025042026978297
  30    -0.050849252162178
  31    -0.0087081003705132
  32    -0.00026031457731248
  33    -0.0011730844207929
  34     -0.02504200258647
  35    -0.050849199739908
  36    0.0087081047696697
  37    -0.00095346903528725
  38    0.0007312857332446
 Sym= A
 Ene=               9
 Spin= Alpha
 Occup=    0.00000
   1    -0.014978039116186
   2      -1.3976105693655
   3       3.3210381758176
   4    -0.033558038109361
   5    -0.045790222672905
   6      0.37339657467507
   7      0.58212099614093
   8      0.85983068211652
   9      -1.4245863808514
  10     0.040864270122606
  11       0.1411805975409
  12     -0.50377248179155
  13      0.13833704814757
  14     -0.28424596553747
  15     0.034737021724263
  16       0.1269716466312
  17     -0.95747572626536
  18      0.10367999764663
  19    -0.007826835222358
  20     0.021078080351206
  21      0.76103139034353
  22    -0.032455083072214
  23      0.13196176156977
  24     0.094131075319984
  25    -0.066502202583136
  26    -0.0031595148588796
  27     -0.19327299773752
  28     0.021129225543599
  29     0.040169741143403
  30    -0.0098686806676612
  31    -0.052647451047522
  32    -0.0041403034126869
  33    0.0058357855287021
  34      -1.0503365157568
  35      -1.2104368884043
  36    -0.070631790614249
  37      0.22783405997695
  38     -0.23841834421627
 Sym= A
 Ene=              10
 Spin= Alpha
 Occup=    0.00000
   1     0.023317839135947
   2      0.10323023287187
   3     -0.68291232959825
   4    -0.058239571695167
   5    0.00011431807506734
   6    -0.026189947457847
   7     -0.54889864967231
   8    0.0025240342862901
   9     -0.15916163550332
  10     0.076010643891863
  11    -0.095663225038367
  12     0.014581853457079
  13     -0.12701759063793
  14    0.0048580958083626
  15    -0.013861810554033
  16      -1.3282964364254
  17         3.16860321179
  18    -0.073250877286305
  19     0.050000830609602
  20     -0.37012710939407
  21     -0.21638495400534
  22    -0.062772153231781
  23       1.8427425160848
  24      0.55510224800238
  25      0.17030612743325
  26    -0.015367988061019
  27      0.21688358328846
  28     0.055522236655988
  29      -1.1490657824818
  30      -1.3302683045706
  31     0.088116787555001
  32    0.0069744143671083
  33      0.36583831601402
  34      0.03221385057673
  35     0.023823477008297
  36     0.046412616943392
  37    -8.250915936151e-05
  38    0.0021348769317202
 Sym= A
 Ene=              11
 Spin= Alpha
 Occup=    0.00000
   1    -0.034870126670745
   2     0.050003260857028
   3      0.41509827058637
   4      -0.7750899723163
   5     0.066236183187626
   6       0.1054974908128
   7       1.6045370177002
   8     -0.14848753952448
   9    -0.028682078354529
  10      0.13628089826607
  11      0.31145646881039
  12    -0.015745957728814
  13    -0.083005275478616
  14      0.01650619046113
  15     0.020066883495311
  16     0.082326926715773
  17      -0.8650581387039
  18     0.075088244860104
  19    0.0035824893106719
  20    -0.0027290480929539
  21      0.61737428593484
  22     0.010197316503823
  23    -0.0049952833768262
  24      0.02418133297491
  25     0.035762206358072
  26    0.0027404098841166
  27    -0.081578674059094
  28    -0.0041418924946514
  29     0.055204872917722
  30     -0.13101409868354
  31    -0.016416580290393
  32    -0.00058056946889826
  33    0.0073371539974534
  34    -0.066220870528614
  35      0.28606006044433
  36    -0.093199884470298
  37     0.034452207995459
  38     0.010222062210875
 Sym= A
 Ene=              12
 Spin= Alpha
 Occup=    0.00000
   1    -0.013656106787932
   2    -0.024268292096183
   3      0.28778222127824
   4     0.026215285660524
   5    -0.0058971025843289
   6     0.027564941149644
   7      0.19224156586314
   8    -0.023808931090924
   9      0.15531878713939
  10    -0.0010676507732307
  11     0.033811240365587
  12     0.006176156041251
  13     0.019508564252542
  14    0.0034680205668394
  15    0.00086072621606838
  16     0.046311559073684
  17      0.21409106515214
  18     0.036009417525048
  19    -0.0069254788306338
  20    -0.082354027196247
  21      0.30009340102494
  22    -0.024467017262856
  23    -0.031214530049499
  24     -0.19373725745715
  25     0.049699499467207
  26    -0.020825942808978
  27    -0.034454460914697
  28    -0.0033761442655358
  29       1.1334778096313
  30      -1.5204317839264
  31     -0.41203630887753
  32      0.10662909082828
  33      0.12039511023907
  34     0.016986739516061
  35     0.095353613222082
  36    -0.00064505316284836
  37    -0.010019503542861
  38    0.0045492269680044
 Sym= A
 Ene=              13
 Spin= Alpha
 Occup=    0.00000
   1    -0.00085730035773344
   2     0.052927385829921
   3      0.23702113736182
   4    -0.038891562767999
   5    -0.048027674513654
   6     0.048377512074007
   7     -0.30501716346043
   8    -0.025413043196009
   9    -0.002865867860372
  10    -0.041476187595517
  11     0.043469296081368
  12      0.17474426341572
  13     0.046491761924055
  14    -0.032532062602877
  15    -0.013664661252084
  16    -0.024607849498207
  17      0.28827308182967
  18    -0.026300009471329
  19     0.012813585952699
  20    -0.024696923461382
  21      -0.1930374266684
  22      0.08064702515041
  23     -0.13471073200166
  24    -0.013143677562715
  25     0.023444457376952
  26    -0.0097277056883538
  27     0.013281801721709
  28    -0.023874849131479
  29     0.017453191273125
  30     0.096429078966153
  31    0.00038597571266749
  32    -0.0048145462653594
  33    -0.010213125229847
  34       1.1122585468027
  35      -1.5340518672567
  36       0.4099277044356
  37      0.17401777910374
  38    -0.064006525370298
 Sym= A
 Ene=              14
 Spin= Alpha
 Occup=    0.00000
   1     0.089022853455596
   2     -0.42263784454456
   3     -0.34301372669293
   4      0.13393516223195
   5     -0.39095654677033
   6      0.46349495673826
   7     0.056466663468921
   8     -0.25577581867939
   9       0.3032965186554
  10    -0.033405374504502
  11    -0.012272398112459
  12     0.079233898176471
  13     0.031157802457276
  14     0.011148347190631
  15    0.0045299252359659
  16    -0.032476715038577
  17    -0.0002776789455923
  18    0.0024157719375385
  19     0.010453330118778
  20    0.0028421257983568
  21    -0.015248512356483
  22     0.020296818704528
  23    -0.016062178408964
  24    0.0016483080621087
  25    0.0015082921555327
  26    -0.0021982986792369
  27    -0.0039681535432668
  28    -0.0022250911479541
  29    -0.025168064208335
  30    -0.013578920569814
  31    0.00045326155113755
  32    -0.00024606874762612
  33    -8.383792498929e-05
  34      0.89138403916193
  35      0.55040469239474
  36     0.017598829938865
  37    -0.049895429456306
  38     0.060572006364692
 Sym= A
 Ene=              15
 Spin= Alpha
 Occup=    0.00000
   1    -0.040266550526109
   2     -0.15057225115613
   3        1.127473972928
   4      0.14549465534071
   5    -0.013965988790042
   6     0.023887896609816
   7      0.95366097461185
   8     0.051097052823461
   9     -0.03544344089811
  10      -0.1257009873299
  11    -0.0073906258093806
  12    -0.013944543527348
  13      0.21655399401988
  14     0.024692897123897
  15     -0.03030440380271
  16       1.0869164388891
  17      -1.8457679323343
  18     -0.22518427180984
  19      0.42308999396094
  20     -0.44300303446323
  21       1.2988159211432
  22     -0.52605376794094
  23      0.67075602727234
  24      0.29484132656137
  25      0.32294849620295
  26    -0.089659201277105
  27     -0.26254858253708
  28     -0.11796146253435
  29     -0.16408485647357
  30    -0.094369197768905
  31     -0.11684679893388
  32     0.068530578934828
  33     0.073379064659418
  34    -0.087831774250684
  35      0.28743939414929
  36    -0.0038711750176212
  37    -0.022033741203603
  38     0.022406810896206
 Sym= A
 Ene=              16
 Spin= Alpha
 Occup=    0.00000
   1    -0.019040577697327
   2    -0.087152121596286
   3      0.86728640770122
   4     0.067224008174594
   5    0.0020109331523847
   6    -0.0012869644011889
   7      0.61687014518399
   8     0.022404733722238
   9     0.015769211462364
  10    -0.032826809409724
  11    -0.012704174962503
  12    -0.021658864314288
  13     0.068834492652988
  14     0.029582992156389
  15     0.038621893460698
  16     0.049286818292512
  17     -0.70347727126357
  18     -0.76091886805334
  19    -0.050788514323682
  20      0.10420295769812
  21       1.5503300653482
  22     0.046803386584981
  23     -0.20820481106255
  24     -0.22988539492224
  25     -0.24437053844452
  26     0.068227863168409
  27      0.12502773921137
  28      0.23904242075381
  29      0.24129147607889
  30     -0.10707774717966
  31     -0.10762611930023
  32     -0.02561690612743
  33    -0.074836437040687
  34    -0.060183666584828
  35      0.11857336148487
  36    -0.020239069257354
  37    -0.0037584969501399
  38    0.0021094906037505
 Sym= A
 Ene=              17
 Spin= Alpha
 Occup=    0.00000
   1    0.00035714320084029
   2    -0.014332292185207
   3    0.0024651206363429
   4    0.00082561779559375
   5    -0.0028864518805917
   6    -0.014768247843379
   7     0.025975637924062
   8    -0.019276541129696
   9    -0.0056037497437013
  10     -0.01349429862557
  11     -0.02101386024148
  12     0.009980058005288
  13     0.018225944409438
  14    0.00036371435397917
  15    -0.063149098459873
  16       0.2396571025966
  17      0.84830597321535
  18     0.099285510782449
  19    0.0003612684514032
  20      0.52914505007391
  21      0.15530656355884
  22    -0.00063967991916979
  23      0.62901758403636
  24      0.45428342323706
  25      0.14679707198854
  26    0.00012932503459919
  27    0.0042441206262277
  28    -0.0011150816046326
  29     -0.77606633306115
  30      -0.5015253682204
  31      0.16725875437035
  32    0.0015281969133416
  33       1.4668229769198
  34     0.019032293115134
  35     0.046531503767405
  36    0.0095671046815642
  37    -0.010471125519581
  38    0.0078348398274134
 Sym= A
 Ene=              18
 Spin= Alpha
 Occup=    0.00000
   1    -0.013385317001789
   2    -0.034938266048754
   3      0.35331467656183
   4     0.049762331147163
   5    -0.038880920448521
   6    -0.0055525657925365
   7      0.30828348100051
   8     -0.31577316220239
   9    -0.050872283633049
  10    -0.037936284640547
  11     -0.04549077666042
  12     0.015528238592207
  13     0.078499725785459
  14     -0.14774577927421
  15    -0.0079999089783019
  16      0.26174102942283
  17     -0.42878642977691
  18     -0.11025924278136
  19     -0.67419451364687
  20     -0.22548792624238
  21       0.4757243007599
  22      0.86968888164084
  23      0.39897447982156
  24      0.08163335547666
  25     -0.10713153872385
  26    0.00094269454924872
  27     -0.10456166001656
  28     -0.67905364685759
  29    -0.089814967186346
  30     -0.13533605112126
  31    -0.00098861503822415
  32    -0.052789973015756
  33    0.0093974487720232
  34     0.040738766554651
  35     0.060039472091625
  36    -0.0020677332748649
  37    0.0075621679315766
  38      0.02932584916139
 Sym= A
 Ene=              19
 Spin= Alpha
 Occup=    0.00000
   1     0.062888730119896
   2     -0.23821384520901
   3      -0.8351707216823
   4      0.09975103044995
   5     -0.34372942091792
   6      0.40312106798998
   7      0.15288017438658
   8     -0.41015814418846
   9       0.4739995535091
  10     -0.16395172075109
  11     -0.11522838872496
  12      0.39497480806283
  13      0.16405984117533
  14     0.096878003457824
  15    -0.00065944039346627
  16     0.012912096061344
  17    0.0031823011194445
  18    0.00075266325170692
  19     0.012186447867222
  20    -0.010021684426147
  21      0.02066031411085
  22     0.022726744422884
  23    0.0034946678114945
  24     0.019565700671388
  25     0.015917197704767
  26    -0.0012956184597908
  27    -0.014446653051448
  28    -0.014124686923579
  29    -0.017803164834748
  30    -0.042443027944959
  31    0.0097572676659248
  32    0.0027309773138623
  33     0.012016985815001
  34      0.81191555491077
  35      0.44783947952515
  36      0.15131391803821
  37     -0.90594389765717
  38       1.1492835758516
 Sym= A
 Ene=              20
 Spin= Alpha
 Occup=    0.00000
   1    -0.0024854172040151
   2    0.0063524262740225
   3     0.010730289705474
   4    -0.0010561433605793
   5    -0.053898428427283
   6    -0.080338883298709
   7     0.016009971540881
   8     -0.16792019305664
   9       -0.176542279262
  10      0.20403130701952
  11     0.021287984740945
  12    0.0087978131795848
  13      0.10150078652949
  14     0.020483957973529
  15     0.001698259931268
  16    0.0010076800306844
  17    -0.031957755198777
  18    0.0012971147849454
  19    0.0046629730571215
  20    0.0053223787644991
  21     0.012927594822843
  22     0.023667743993974
  23     0.032684676545331
  24    -0.0052142808092143
  25    -0.014904724483697
  26    0.00049797108331491
  27    -0.002703870925895
  28    -0.012259085847121
  29    -0.00042747634028406
  30    0.0076841724471572
  31    -0.0024831047263541
  32    -0.00084120788825878
  33    -0.0028920512715459
  34      -0.1289159077577
  35       0.1122666632248
  36    -0.032788536557431
  37      0.87658051379001
  38      0.67502461562159
 Sym= A
 Ene=              21
 Spin= Alpha
 Occup=    0.00000
   1    0.0084360172393624
   2     0.048202048741683
   3     -0.15394537216495
   4     -0.01315462282432
   5     -0.01092815051913
   6     0.039599928249922
   7     -0.11610165953259
   8    -0.079776424339471
   9      0.26941964014658
  10    0.0085072130001911
  11      0.15671410732402
  12     0.031100672061955
  13    -0.031539525134202
  14    -0.048274674672056
  15     0.023510141269315
  16     -0.38657263336322
  17      0.50784160483088
  18     -0.19232518624195
  19      0.04407797280273
  20      0.37852781568127
  21      0.15535157423086
  22    -0.029974390292123
  23     -0.50244142048303
  24     -0.13896487015863
  25       0.9045669840644
  26     0.015384994235071
  27     0.095332487631873
  28     -0.37669831760148
  29     0.022457065315068
  30     -0.03087919839248
  31      -0.1912783474903
  32     0.011552719971137
  33     0.091162784181302
  34      0.10757760236895
  35    -0.025835246341862
  36     0.030631701160062
  37     -0.01042168233541
  38    -0.0028464114751033
 Sym= A
 Ene=              22
 Spin= Alpha
 Occup=    0.00000
   1    0.0091764108898341
   2    -0.0031825546620455
   3     -0.29639690169281
   4    -0.057094618545933
   5    -0.024433947542859
   6     0.029888487671757
   7     -0.20375886903779
   8    -0.063055566418051
   9     0.077201864743702
  10    -0.020215168444477
  11      0.15660753579925
  12     0.012231379938029
  13     0.027907064262963
  14     -0.13252318025889
  15    -0.00029967118237673
  16      0.03201735942972
  17     0.040970851598948
  18    -0.023929265560008
  19    0.0027924308358946
  20    0.0032308659564956
  21     0.022053223207946
  22     -0.04699441322953
  23     0.087662504397595
  24    0.0024613564455631
  25     0.019763885318749
  26    0.0097775268156588
  27     0.012367791541963
  28    -0.010496980286536
  29    -0.031724723570827
  30    -0.047973975904431
  31    -0.010508949256911
  32    0.0037023510130581
  33     0.013567646114783
  34     -0.36670712969857
  35      0.66293218144216
  36       1.0436674731779
  37    -0.0058484364281998
  38    -0.0054172487969389
 Sym= A
 Ene=              23
 Spin= Alpha
 Occup=    0.00000
   1    0.0018501167174556
   2       0.0017843000165
   3    -0.035635175329001
   4    -0.0017051436816638
   5    0.0071725395629949
   6    -0.00082772785447281
   7    -0.016213714714276
   8     0.040167238234316
   9    -0.011231896805785
  10    -0.00086633811212495
  11    -0.0031726105697425
  12    0.0052536422698184
  13     -0.00148840988592
  14     0.018942389622901
  15    -3.1470142392601e-05
  16    -0.0036379761872078
  17    -0.024529998608857
  18    -0.0034330242807256
  19    -0.092944647692317
  20    0.0071429937384228
  21    -0.026256478030671
  22      -0.2419977425802
  23    0.0031532122613316
  24     0.018267426285148
  25    -0.0037568279186629
  26     -0.22546862695425
  27    0.0033834038293923
  28    -0.029319481735868
  29     -0.11110731564982
  30      0.14870576011117
  31     0.033781957913474
  32        1.105012463837
  33    -0.012889744633667
  34    -0.0013028399658528
  35    0.0048316921748754
  36    0.0020893409626369
  37    -0.0020014794257054
  38    0.0013323460034209
 Sym= A
 Ene=              24
 Spin= Alpha
 Occup=    0.00000
   1     0.044971253830885
   2     0.046764201189802
   3     -0.85489538419624
   4     -0.19537452511553
   5    0.00066168794526182
   6    -0.0028250384425527
   7     -0.63210446607265
   8    -0.0075491946445881
   9    -0.022814224160856
  10      0.12911180873655
  11    -0.0006628190134285
  12     0.002604313234252
  13     -0.25099604434428
  14    -0.016597214449171
  15     -0.03334328442813
  16    -0.019574638062855
  17      0.53355889433471
  18       0.2187796239529
  19     0.035888942651873
  20    -0.064519023028156
  21     -0.91833231399516
  22    -0.035356163251243
  23     -0.01033233990097
  24     -0.11866674518579
  25    -0.020751746188295
  26    -0.017642533376509
  27       1.1528918843064
  28     -0.11122444210803
  29    -0.0088315341789862
  30      0.17926729406942
  31     0.024716924902726
  32     0.010215863191486
  33    -0.031605510263891
  34     0.020050588214504
  35    -0.029155635542623
  36     0.017962351698857
  37     0.012340650253078
  38    -0.014836011985919
 Sym= A
 Ene=              25
 Spin= Alpha
 Occup=    0.00000
   1    -0.025487195750915
   2      0.12772675653508
   3      0.10759982785206
   4    -0.080979081345974