[Molden Format]
made by pyscf v[2.0.1]
[Atoms] (AU)
C   1   6     0.00000000000000     0.00000000000000     0.00000000000000
C   2   6     2.85272299873892     0.00000000000000     0.00000000000000
H   3   1     3.62066923017674     0.00000000000000     1.90331545357504
F   4   9     3.65943188126013    -2.04308229183900    -1.24074875274501
F   5   9     3.65943188126013     2.04308229183900    -1.24074875274501
F   6   9    -0.80670888252121    -0.36279929541697     2.36262976149657
H   7   1    -0.76794623143782    -1.45802422671364    -1.22342759088295
F   8   9    -0.80670888252121     2.26373667011121    -0.76755391149953
[GTO]
1 0
 s    8 1.00
                  6665  0.00069158396281299
                  1000  0.0053257961529341
                   228   0.027060721042034
                 64.71    0.10165684614077
                 21.06     0.2745748236174
                 7.495    0.44829431892377
                 2.797    0.28490261071525
                0.5215   0.015194859206082
 s    8 1.00
                  6665  -0.00029326965268655
                  1000  -0.0023180354739745
                   228  -0.011499786038565
                 64.71  -0.046826727009787
                 21.06   -0.12846616875047
                 7.495   -0.30126627246289
                 2.797   -0.25563070233011
                0.5215      1.093793361012
 s    1 1.00
                0.1596                   1
 p    3 1.00
                 9.439   0.056979251590039
                 2.002    0.31320721150073
                0.5456    0.76037674173753
 p    1 1.00
                0.1517                   1
 d    1 1.00
                  0.55                   1

2 0
 s    8 1.00
                  6665  0.00069158396281299
                  1000  0.0053257961529341
                   228   0.027060721042034
                 64.71    0.10165684614077
                 21.06     0.2745748236174
                 7.495    0.44829431892377
                 2.797    0.28490261071525
                0.5215   0.015194859206082
 s    8 1.00
                  6665  -0.00029326965268655
                  1000  -0.0023180354739745
                   228  -0.011499786038565
                 64.71  -0.046826727009787
                 21.06   -0.12846616875047
                 7.495   -0.30126627246289
                 2.797   -0.25563070233011
                0.5215      1.093793361012
 s    1 1.00
                0.1596                   1
 p    3 1.00
                 9.439   0.056979251590039
                 2.002    0.31320721150073
                0.5456    0.76037674173753
 p    1 1.00
                0.1517                   1
 d    1 1.00
                  0.55                   1

3 0
 s    3 1.00
                 13.01   0.033498726389998
                 1.962    0.23480080117413
                0.4446     0.8136829578829
 s    1 1.00
                 0.122                   1
 p    1 1.00
                 0.727                   1

4 0
 s    8 1.00
                 14710  0.00072067370873197
                  2207  0.0055504869689163
                 502.8   0.028254207662589
                 142.6    0.10639582836653
                 46.47    0.28668420124307
                  16.7    0.44843796582416
                 6.356    0.26464118141135
                 1.316   0.015326060993048
 s    8 1.00
                 14710  -0.00032119389049893
                  2207  -0.0025461915683188
                 502.8  -0.012643359507821
                 142.6   -0.05195749170489
                 46.47   -0.14344713812646
                  16.7   -0.33243762329603
                 6.356   -0.21865906750347
                 1.316     1.0955904138622
 s    1 1.00
                0.3897                   1
 p    3 1.00
                 22.67   0.064834021493887
                 4.977    0.34053535983101
                 1.347    0.73464640679382
 p    1 1.00
                0.3471                   1
 d    1 1.00
                  1.64                   1

5 0
 s    8 1.00
                 14710  0.00072067370873197
                  2207  0.0055504869689163
                 502.8   0.028254207662589
                 142.6    0.10639582836653
                 46.47    0.28668420124307
                  16.7    0.44843796582416
                 6.356    0.26464118141135
                 1.316   0.015326060993048
 s    8 1.00
                 14710  -0.00032119389049893
                  2207  -0.0025461915683188
                 502.8  -0.012643359507821
                 142.6   -0.05195749170489
                 46.47   -0.14344713812646
                  16.7   -0.33243762329603
                 6.356   -0.21865906750347
                 1.316     1.0955904138622
 s    1 1.00
                0.3897                   1
 p    3 1.00
                 22.67   0.064834021493887
                 4.977    0.34053535983101
                 1.347    0.73464640679382
 p    1 1.00
                0.3471                   1
 d    1 1.00
                  1.64                   1

6 0
 s    8 1.00
                 14710  0.00072067370873197
                  2207  0.0055504869689163
                 502.8   0.028254207662589
                 142.6    0.10639582836653
                 46.47    0.28668420124307
                  16.7    0.44843796582416
                 6.356    0.26464118141135
                 1.316   0.015326060993048
 s    8 1.00
                 14710  -0.00032119389049893
                  2207  -0.0025461915683188
                 502.8  -0.012643359507821
                 142.6   -0.05195749170489
                 46.47   -0.14344713812646
                  16.7   -0.33243762329603
                 6.356   -0.21865906750347
                 1.316     1.0955904138622
 s    1 1.00
                0.3897                   1
 p    3 1.00
                 22.67   0.064834021493887
                 4.977    0.34053535983101
                 1.347    0.73464640679382
 p    1 1.00
                0.3471                   1
 d    1 1.00
                  1.64                   1

7 0
 s    3 1.00
                 13.01   0.033498726389998
                 1.962    0.23480080117413
                0.4446     0.8136829578829
 s    1 1.00
                 0.122                   1
 p    1 1.00
                 0.727                   1

8 0
 s    8 1.00
                 14710  0.00072067370873197
                  2207  0.0055504869689163
                 502.8   0.028254207662589
                 142.6    0.10639582836653
                 46.47    0.28668420124307
                  16.7    0.44843796582416
                 6.356    0.26464118141135
                 1.316   0.015326060993048
 s    8 1.00
                 14710  -0.00032119389049893
                  2207  -0.0025461915683188
                 502.8  -0.012643359507821
                 142.6   -0.05195749170489
                 46.47   -0.14344713812646
                  16.7   -0.33243762329603
                 6.356   -0.21865906750347
                 1.316     1.0955904138622
 s    1 1.00
                0.3897                   1
 p    3 1.00
                 22.67   0.064834021493887
                 4.977    0.34053535983101
                 1.347    0.73464640679382
 p    1 1.00
                0.3471                   1
 d    1 1.00
                  1.64                   1

[5d]
[7f]
[9g]

[MO]
 Sym= A
 Ene=               0
 Spin= Alpha
 Occup=    1.00000
   1       1.0018688746891
   2    -0.00094047735117381
   3    -0.0096507043296261
   4    -0.00014883875252734
   5    0.0023068096764364
   6     0.002017436828876
   7    -0.001655642898322
   8    0.0011553043379878
   9    0.0010710973703064
  10    0.00015653584296816
  11    -7.205481975366e-05
  12    -0.00022977268047805
  13    -0.00015725806476346
  14    -7.9615990743448e-05
  15    -0.0002095622998587
  16    -0.00087993423821012
  17    0.0028220434948722
  18    0.0010775309127101
  19    4.2522214571611e-05
  20    0.00010276635704629
  21    -0.0012494861966662
  22    -0.00015852411951277
  23    -0.00036975309305798
  24    8.8416132437666e-05
  25    -1.2946661637587e-05
  26    3.986444411747e-06
  27    -0.00020367650821746
  28    2.4228995302719e-05
  29    2.880389960923e-05
  30    0.00048931613679794
  31    -7.0008521270465e-05
  32    3.4544394223499e-06
  33    -3.6360004874664e-05
  34    1.9462352534198e-05
  35    0.0001548267623388
  36    -5.2591135039559e-05
  37    -0.00031285941422062
  38    9.0002974078459e-05
  39    2.0571397081232e-05
  40    -0.00031828345395163
  41    1.821847066513e-06
  42    3.1416703617995e-05
  43    -7.5911628485967e-06
  44    -2.297352144569e-06
  45    1.460346678428e-05
  46    5.7692250095204e-06
  47    2.9212113943225e-06
  48    -2.1352174088704e-05
  49    1.150494181941e-05
  50    4.4809522677071e-06
  51    -0.00013525565679908
  52    -7.2496346177553e-05
  53    -1.0261314985427e-05
  54    -0.00027277893949982
  55    2.9972949424168e-05
  56    -1.3046734007571e-05
  57    -1.4478535182175e-05
  58    -2.8536324054867e-06
  59    -5.7827455717733e-06
  60    2.3936866364938e-05
  61     1.03871674495e-06
  62    0.00014638477489746
  63    -8.8637626784081e-05
  64    -0.00073812282379586
  65    -0.00044301435270316
  66    -0.00026036109004904
  67    0.0011654139599786
  68    -0.00043630183801794
  69    -0.00050051727842444
  70    0.0016680018392048
  71    -0.0002599521468523
  72    0.00013648093595836
  73    6.5655615205867e-05
  74    -2.5501896424329e-05
  75    -2.785220864363e-05
  76    -0.0030845145913171
  77    0.00088072770633509
  78    5.5988400414463e-05
  79    -0.00024457715553981
  80    -0.00021969070966123
  81    0.00012523746757111
  82    -0.00013019240715988
  83    -0.00060723333062079
  84    -0.00044904918116596
  85    0.0011051021990478
  86    -0.00045347008326888
  87    -0.00043344199788321
  88    0.0015161423514422
  89    -0.00078246426944485
  90    0.00011543104009915
  91    -4.9001129915848e-05
  92    0.00014027501222115
  93    0.0001871402829266
  94    0.00012467525816625
 Sym= A
 Ene=               1
 Spin= Alpha
 Occup=    1.00000
   1    -0.00020956108216455
   2    -0.0008799211262279
   3    0.0028220541517283
   4    -0.0010775068319456
   5    -5.1392537846133e-05
   6    -9.8628605538362e-05
   7    0.0012494935635609
   8    0.00018134950083304
   9    0.0003591114442785
  10    0.00011749712624369
  11    1.0239280481774e-05
  12    -2.4190959494422e-05
  13    -0.00018688385050151
  14    -2.5491861733629e-05
  15       1.0018688750789
  16    -0.00094046474748194
  17    -0.0096506928722168
  18    0.00014881675611541
  19    -6.2660749672927e-05
  20    -0.0030638909514585
  21    0.0016556381176656
  22    -7.789314462239e-05
  23    -0.0015735006354988
  24    -9.7300796314315e-05
  25    -0.00010730479337434
  26    1.6171440286543e-05
  27    -0.00030380678068171
  28    -4.0203985184371e-06
  29    -0.003084509684039
  30    0.00088072532083564
  31    -5.5989299370658e-05
  32    1.1081541343183e-05
  33    0.00032857101889415
  34    0.00014638486862126
  35    -8.8639751544247e-05
  36    -0.00073812635242769
  37    0.00044301947152756
  38    -0.001060120959827
  39    -0.00054966555921694
  40    0.00043630645872194
  41    -0.0015994933426699
  42    -0.00068875281980626
  43    3.7823023660422e-05
  44    6.6392104094848e-05
  45    -0.00022286129134494
  46    0.00014641888444275
  47    0.00012245348605101
  48    0.00012523772680099
  49    -0.00013019560235633
  50    -0.00060723769679581
  51    0.00044907293050946
  52    0.0010577348669983
  53    -0.0005550645784981
  54    0.00043345967469606
  55    0.0015739669416291
  56    -0.00065846865075115
  57    3.8355416169312e-05
  58    6.4009545501948e-05
  59    0.00021495464396818
  60    0.00014264065487215
  61    -0.00011767713181668
  62    1.946240931534e-05
  63    0.00015482587121103
  64    -5.2594459024183e-05
  65    0.00031286067016517
  66    4.2091979520826e-05
  67    -8.2166387742412e-05
  68    0.00031828274191257
  69    -2.2897152199669e-05
  70    -2.1587531081553e-05
  71    8.6136008677453e-06
  72    7.6071852809161e-07
  73    -1.0975624192511e-06
  74    1.5125297745639e-05
  75    -3.6375746708704e-06
  76    2.8802500639993e-05
  77    0.00048931324916708
  78    7.0009038653654e-05
  79    3.0073838327962e-05
  80    2.072544331104e-05
  81    -2.1352095384615e-05
  82    1.1503894286764e-05
  83    4.4791675671265e-06
  84    0.00013524747379134
  85    -3.873438001082e-05
  86    6.2137833191627e-05
  87    0.00027277169444644
  88    2.9263650371629e-05
  89    -1.4569944547722e-05
  90    -1.8830619660743e-05
  91    -1.0384505891356e-06
  92    -1.5659458046929e-06
  93    2.1424249484276e-05
  94    -2.8537438539611e-06
 Sym= A
 Ene=               2
 Spin= Alpha
 Occup=    1.00000
   1    9.1500641441972e-05
   2    0.00012448628775464
   3    -0.001972851865493
   4    -0.00011715619100604
   5    8.4190980415414e-06
   6    -1.8532250432941e-06
   7    -0.00095682815708926
   8    -0.00044002439363531
   9    0.00022002348392474
  10    -3.9431018888958e-06
  11    2.3623813201981e-05
  12    -5.4648686212589e-05
  13    -7.7893592419151e-05
  14    -2.503949076325e-05
  15    -6.6557780750417e-05
  16    -1.4301503923583e-07
  17    0.0041585955068963
  18    0.00024336455472469
  19    0.00044699300545606
  20    -0.00026330335442733
  21    -0.00043147057152962
  22    0.0011421394940655
  23    -0.0010352967964586
  24    -1.928240214226e-06
  25    9.8762449523273e-06
  26    6.9301639362981e-05
  27    4.1063898209383e-05
  28    -4.834539975365e-05
  29    -0.00025259625793146
  30    -0.00013941600139915
  31    5.2597497720888e-06
  32    -0.0001351403253323
  33    0.00012568593549163
  34    0.00010983233251377
  35    0.00020502230189137
  36    -0.00078199978636615
  37    4.5206902201204e-06
  38    1.2095617289383e-05
  39    -4.7633896940844e-05
  40     7.26089140224e-05
  41    -0.00041155712383721
  42    0.00010677294690832
  43    2.1426485517591e-05
  44    -1.1608922167611e-05
  45    -5.3345180435917e-06
  46    2.3597197600132e-05
  47    1.3834763219215e-05
  48       1.0010202228138
  49    -0.0039702145337951
  50    -0.011137128646177
  51    -0.0011021264288713
  52    -0.0023951402316747
  53    0.0014563187739772
  54    -2.1544134520849e-05
  55    0.00018617219554603
  56    -2.5628038541842e-05
  57    1.476282912021e-05
  58    4.7159029632855e-05
  59    0.00010087507086843
  60    8.8549041581986e-05
  61    -7.2941902901064e-05
  62    -2.1512412721283e-05
  63    -3.3039374832167e-05
  64    0.00016431001169926
  65    -1.3303181396391e-05
  66    -4.451349456188e-06
  67    -1.5072629485521e-05
  68    0.00015619950099366
  69      6.3338765681e-05
  70    -4.7237634728158e-05
  71    1.8579780601467e-06
  72    -4.6048528587171e-06
  73    -1.5299551486364e-05
  74    -4.0552942626071e-06
  75    1.4028217969456e-06
  76    0.00014052706349464
  77    -0.00011575838720683
  78    2.3240556266706e-05
  79    4.8768276627698e-05
  80    -3.0554012341306e-05
  81    -5.7808942880821e-05
  82    -0.00010823084445521
  83    0.00037344075375236
  84    -1.1267902488784e-05
  85    4.2174691581968e-05
  86    -5.7379879966458e-06
  87    7.7957423662182e-05
  88    -9.4390992787042e-05
  89    9.8196739022891e-06
  90    1.479770203869e-05
  91    3.4180972154879e-06
  92    5.773388451586e-06
  93    -1.0703347979689e-05
  94    -1.6901780743016e-07
 Sym= A
 Ene=               3
 Spin= Alpha
 Occup=    1.00000
   1    -6.6505897691331e-05
   2    6.6349296628655e-08
   3    0.0041587429153298
   4    -0.00024344942489506
   5    0.0004892773357737
   6    -0.00017322214304164
   7    0.00043153928577829
   8    0.0015271968770812
   9    -0.00020944323117589
  10    3.7993185855705e-05
  11    -3.0704988380847e-05
  12    3.0653548695326e-05
  13    6.4105729851441e-05
  14    3.8679774943881e-05
  15    9.1505803513029e-05
  16    0.00012447284132136
  17    -0.0019730171930999
  18    0.00011720428995717
  19    6.8540311112194e-06
  20    -5.2623882941936e-06
  21    0.00095691078797768
  22    -0.00045134370490085
  23    0.00019565856047733
  24    -7.4937300239441e-06
  25    -3.9918058177946e-06
  26    -5.1206221266987e-05
  27    -7.9946448785961e-05
  28    3.4174507769633e-05
  29    0.00014053748231012
  30    -0.00011574161416819
  31    -2.3236815866793e-05
  32    5.4752434939574e-05
  33    -1.7718848240842e-05
  34    -2.1514624972727e-05
  35    -3.3036445946156e-05
  36    0.00016434946277387
  37    1.3287381814126e-05
  38    8.6933044750833e-06
  39    1.3108451397244e-05
  40    -0.00015621848844915
  41    7.6910557505862e-05
  42    -1.8146210264714e-05
  43    -1.076481818669e-05
  44    -1.8844017127166e-06
  45    -3.0691020877802e-06
  46    -1.1343986015409e-05
  47    -4.428468382314e-06
  48    -5.780726412011e-05
  49    -0.00010822876845703
  50    0.0003734343868365
  51    1.1258916908209e-05
  52    3.1516324437243e-05
  53    -2.8634575854707e-05
  54    -7.796123610829e-05
  55    -6.8200900126124e-05
  56    6.5986381843554e-05
  57    1.2136038344104e-05
  58    2.0671385148857e-06
  59    8.3526539667406e-06
  60    -1.2240936630643e-05
  61    2.727272832304e-06
  62    0.00010983349207509
  63    0.00020501214161346
  64    -0.00078204063695363
  65    -4.5256402081161e-06
  66    4.4240371467912e-05
  67    2.1381150966648e-05
  68    -7.2620186692395e-05
  69    -0.00034635717326222
  70    0.00024667047834284
  71    -1.3974642924262e-05
  72    3.1367865176511e-06
  73    2.8963567117558e-05
  74    3.1560013078775e-06
  75    -1.7784263899119e-05
  76    -0.00025255008252378
  77    -0.00013944272426764
  78    -5.2726824575159e-06
  79    -0.0001831390249914
  80    2.2723431129979e-05
  81       1.0010201772763
  82    -0.0039729927997645
  83    -0.011140323735694
  84    0.0011030572803619
  85    -0.0026560109825768
  86    0.00089963705703845
  87    2.2184121643796e-05
  88    0.00013872889345001
  89    -0.00012548014734041
  90    4.2796618212725e-05
  91    -2.5551864994265e-05
  92    7.3688600011073e-05
  93    0.00010473043133967
  94    8.2992274837519e-05
 Sym= A
 Ene=               4
 Spin= Alpha
 Occup=    1.00000
   1    -4.6225627692481e-05
   2    3.777994876419e-05
   3    0.0038881405319483
   4    -0.00024454323717368
   5    -8.2526034796492e-05
   6    0.00051186574406137
   7    0.00035113449302503
   8    7.6748721649842e-05
   9    0.0014591734028057
  10    -6.7937080821319e-05
  11    4.3681380742821e-05
  12    1.5680947133166e-05
  13    -5.761156257364e-06
  14    -4.9071181468937e-06
  15    9.7607434650281e-05
  16    0.00015050035994494
  17    -0.0017742791395035
  18    0.00014679123828134
  19    -3.571442264394e-06
  20    6.0837366105804e-05
  21    0.00081065096012772
  22    -8.558714957605e-05
  23    -0.00031974463229085
  24    0.00012096715836517
  25    5.5507846650451e-05
  26    -2.3244957616079e-05
  27    -2.1484868150151e-05
  28    1.278974832388e-05
  29    8.2681954374408e-05
  30    3.769754593403e-06
  31    4.3122041608097e-05
  32    1.6856983376652e-05
  33    1.6374229302653e-05
  34    -2.4535370931765e-06
  35    3.2261749887361e-06
  36    9.7585646479263e-05
  37    -8.1437183995011e-06
  38    9.3043615269226e-06
  39    9.5676932962188e-06
  40    -7.4932213657135e-05
  41    4.2206520565516e-05
  42    2.2248414259669e-05
  43    9.1684008589484e-06
  44    1.5743140760841e-06
  45    1.1996894371056e-05
  46    -5.1917346416196e-06
  47    -3.3268268833945e-06
  48    -2.0526903354598e-05
  49    -3.303136833266e-05
  50    0.00017952706067897
  51    -2.158361788526e-06
  52    -9.5699928766902e-06
  53    -2.994320009681e-06
  54    -8.9369609108701e-05
  55    -3.4858309515489e-05
  56    6.3417843763798e-05
  57    1.516421577667e-05
  58    2.5835689936055e-07
  59    -9.4183392136578e-06
  60    -4.8754410015045e-07
  61    9.2028679674575e-07
  62       1.0010136012209
  63    -0.0040367079391896
  64    -0.011144041587555
  65    0.0011487607270488
  66    0.00047524933228573
  67    -0.0027677451476268
  68    2.696942357876e-05
  69    -3.5310128231316e-05
  70    0.00010461661162351
  71    -0.0001283480246199
  72    8.0208643315796e-05
  73    3.7075167882025e-05
  74    3.2239722267127e-06
  75    -6.9685998606181e-06
  76    -0.00024584057787026
  77    -0.00014137286260559
  78    -6.3000069956436e-06
  79    -1.3965883000187e-05
  80    -0.00018144661138335
  81    0.00010653110390383
  82    0.0001981316876754
  83    -0.00075264705917137
  84    -3.0432245333127e-06
  85    2.9787213302411e-05
  86    3.6940948180907e-05
  87    -7.014173883064e-05
  88    0.00016919956519743
  89    -0.00036650664533528
  90    -4.3771253618686e-06
  91    -1.7697228155669e-05
  92    2.8685213157046e-05
  93    5.8908667372582e-06
  94    -5.6106705511271e-07
 Sym= A
 Ene=               5
 Spin= Alpha
 Occup=    1.00000
   1    9.7608628052611e-05
   2    0.00015054039629986
   3    -0.0017741520840743
   4    -0.00014673705956034
   5    -4.8895037652632e-05
   6    -3.6369334323474e-05
   7    -0.00081057790480177
   8    0.00018996290658971
   9    0.0002711294405381
  10    5.5816948448696e-06
  11    4.5481024727059e-05
  12    8.8551531412821e-05
  13    -8.8099495538075e-05
  14    3.4306466479628e-05
  15    -4.6250286776604e-05
  16    3.7668416131645e-05
  17    0.0038880501072291
  18    0.00024450735674919
  19    -0.0004450169557519
  20    -0.00026571591636992
  21    -0.00035106203540453
  22    -0.0010684734039672
  23    -0.00099675475470063
  24    8.1411996875228e-06
  25    2.4297227781054e-05
  26    -5.8066241506451e-05
  27    3.8189567985718e-05
  28    3.6575458663521e-05
  29    -0.00024587862871038
  30    -0.00014137504992828
  31    6.2922598291305e-06
  32    0.00013002861625803
  33    0.00012733096873161
  34       1.0010136278818
  35    -0.0040351983718858
  36    -0.011142312261728
  37    -0.0011477474617783
  38    0.0024251678888733
  39     0.001414984892577
  40    -2.6273442026015e-05
  41    -0.00010320647526372
  42    -4.021109839352e-05
  43    1.4618505853278e-05
  44    4.6228949913436e-05
  45    -0.00010144243671203
  46    8.5760971742957e-05
  47    6.5942442265965e-05
  48    0.00010653081290644
  49    0.00019812973514701
  50    -0.00075264487047836
  51    3.0358744684356e-06
  52    -9.1531506090629e-06
  53    -4.6570529453042e-05
  54    7.0131850785196e-05
  55    0.00038951737426899
  56    0.00010596983717374
  57    2.0947787540248e-05
  58    -1.1806778694665e-05
  59    4.1483816124592e-06
  60    2.0513621791314e-05
  61    -1.3196724644957e-05
  62    -2.451832876059e-06
  63    3.2242353292672e-06
  64    9.7554779894723e-05
  65    8.1348000776372e-06
  66    -1.3518045827213e-06
  67    -1.3268409278371e-05
  68    7.4918723069963e-05
  69    1.0077058926853e-05
  70    -4.6621451808892e-05
  71    1.3967885851198e-05
  72    -1.5374025479532e-06
  73    7.3464770582839e-06
  74    -2.4199724582879e-06
  75    3.3447931149916e-06
  76    8.2699143169186e-05
  77    3.800497488829e-06
  78    -4.3124500210599e-05
  79    -1.7043136841009e-06
  80    -2.3435472046045e-05
  81    -2.052637276332e-05
  82    -3.3037416604394e-05
  83    0.00017949985133662
  84    2.1467228456802e-06
  85    -3.8461563908783e-06
  86    9.2498085769851e-06
  87    8.9355871662253e-05
  88    -7.0976947805847e-05
  89    -1.4074144547198e-05
  90    -5.9692893574616e-06
  91    8.7154950884313e-07
  92    1.1057779636867e-05
  93    -1.2687823181982e-05
  94    -3.9469509864674e-07
 Sym= A
 Ene=               6
 Spin= Alpha
 Occup=    1.00000
   1    0.0012978605065449
   2     0.012531272134818
   3     0.023177268793419
   4    -0.018336375847135
   5     0.039931947823883
   6    -0.0088269356642093
   7    -0.011915888469407
   8      0.04480266734177
   9    -0.012641957519789
  10    -0.00057503158682812
  11    -0.018432145732114
  12       0.0336237097194
  13     0.014864563802853
  14    -0.0042475245477841
  15    0.0024403462310807
  16     0.017853659990966
  17     0.018173572801739
  18    -0.017317224845184
  19    0.0019855409786829
  20    0.0028861174298399
  21    0.0020667161619787
  22    0.0062246701560591
  23    -0.00074920541602299
  24    -0.00025832163479348
  25    -0.00038765693814579
  26    0.0007461459398829
  27    0.00025889030252143
  28    -0.00066606211786753
  29    0.0078588057757844
  30    -0.0090692389930516
  31    0.0014053298171229
  32    0.00094868893686397
  33    -0.0015255095928445
  34    -0.00087190813291129
  35    -0.0024795118684125
  36    0.0018621679130397
  37    0.0015092218947662
  38    -0.0025618395279449
  39    0.0016240320213393
  40    -0.0024278395932637
  41    -0.0029212699552359
  42    0.0020065285661159
  43    -6.6572507738351e-05
  44    -0.00012435124188239
  45    6.8976210295175e-05
  46    0.00034454510734634
  47    -0.00041908919627665
  48    0.0010773696314676
  49    -0.0012319747310844
  50    -0.014351347244138
  51    0.0056708222808918
  52    0.0047053573461943
  53    -0.003842226464606
  54    0.0079106126118911
  55    0.0055445172268858
  56    -0.0045264875290507
  57    6.3084798281882e-05
  58    -2.0372791297692e-08
  59    0.00013742383033289
  60    0.00021481519551254
  61    0.00010312277680671
  62    0.00070565889839653
  63    0.0014752385789781
  64    -0.0013589998091579
  65     -0.33728640664149
  66       0.5693756331071
  67    -0.029888211737754
  68     -0.23469854127171
  69       0.3934647096635
  70    -0.019133179486889
  71    0.0014446968933813
  72    0.0069067610546003
  73    -0.011960917285823
  74    -0.0042066926721768
  75    0.0040485825254525
  76     0.016448104388583
  77     0.014437991109139
  78    -0.00078089805273015
  79    -0.0010882234662844
  80    0.00064287754821508
  81    0.0018347106790751
  82    -0.014854095432351
  83    -0.052820401236682
  84    -0.0038606439129329
  85     0.031290338764435
  86    -0.025232140091476
  87    -0.005308909769481
  88     0.030628316921135
  89    -0.024667701711858
  90    0.00046290079379815
  91    -0.00068310190580973
  92    0.00022999957342841
  93    -6.5930111874769e-05
  94    -0.00023929992541837
 Sym= A
 Ene=               7
 Spin= Alpha
 Occup=    1.00000
   1     0.002030268824569
   2     0.018429457579708
   3     0.035904666291516
   4     0.031143708015079
   5    0.0028611990358776
   6    0.0012506743513467
   7     0.026707222153686
   8    -0.0029540560954556
   9    0.0088650387529429
  10    9.0776588066472e-05
  11    -0.0015662256287457
  12    0.00040966600005296
  13    -0.0004992168449801
  14    0.0011376107303712
  15    0.0020226471470414
  16     0.012573386166358
  17    0.0030895704223895
  18     0.023882127949236
  19    -0.031560409512393
  20    -0.021117755683424
  21     0.032967485587149
  22    -0.030490153489877
  23    -0.027159324412804
  24     0.013979149975972
  25    -0.017853051841148
  26    -0.0074854933158022
  27     0.029217487791555
  28     0.018831864546849
  29    0.0058010257615095
  30    0.0013251239427924
  31    0.00024906252741596
  32    7.887655297387e-05
  33    0.00033482666401155
  34    0.0012913624559017
  35    -0.014850131385872
  36     -0.04744581619191
  37    0.0024901360668103
  38    -0.036861841500023
  39    -0.008165433757475
  40    0.0011106013087214
  41    -0.036693541850928
  42    -0.0066343167377689
  43    0.00011779576221722
  44    -0.00067091621103723
  45    -0.00021790934439614
  46    -0.00013897329832222
  47    0.00050431847759057
  48    0.00065231111900859
  49    -0.0057041636477541
  50    -0.012634280346295
  51      0.46940628042881
  52     -0.36819839665201
  53     -0.29256377316599
  54       0.3240445644089
  55     -0.25052890445612
  56     -0.20276157342093
  57    -0.0059260884520063
  58    0.0077796441389242
  59    0.0012639715384745
  60    -0.010045581016303
  61    -0.0057849284090097
  62    -0.00034272575301974
  63    -0.002025461646598
  64    -0.0033702673468121
  65    -0.0055861914730595
  66    0.00081225733862575
  67    0.0018506444273847
  68    -0.0041872984826362
  69    0.0015436852678397
  70    0.0022982252456058
  71    -0.00040120745033093
  72    -0.00060866182246181
  73    -7.4056182549269e-05
  74    0.00033957932875393
  75    6.0618031270676e-05
  76    -0.0078471495524741
  77    -0.0080715369634108
  78    0.00029976082635679
  79    -4.3189928754043e-05
  80    -0.0011777115426864
  81    0.00097625791652929
  82    0.0085136394099703
  83    0.0092704937723913
  84     0.013335985495306
  85    0.00073285511469916
  86    0.00041038534837288
  87    0.0049580603535999
  88    -0.0039112851708025
  89    -0.0006786033429798
  90    0.00060214849403906
  91    0.00033702606159201
  92    -0.00018391601110082
  93    -0.0014835268827715
  94    -0.0010562528003802
 Sym= A
 Ene=               8
 Spin= Alpha
 Occup=    1.00000
   1    0.00092299695172038
   2     0.026967837510695
   3     0.084518660025396
   4     0.033420122789612
   5    -0.0060171568805173
   6    -0.0059467201327989
   7     0.015708109574832
   8     0.005239540623407
   9    -0.00044044447494143
  10    0.0002007673009478
  11    -0.001184067281813
  12    -0.00098215637506404
  13    0.0007476039893707
  14    -0.0009834996667027
  15    0.0028818272772396
  16    0.0053195197221137
  17    -0.012249949412575
  18     0.011754398729921
  19    -0.0045482706949965
  20    0.0091909550992545
  21     0.034520939283892
  22    -0.017981328874941
  23     0.013856994475947
  24    -0.023442626059408
  25    -0.0095158952546358
  26    -0.017464651651559
  27     0.010027755594593
  28    -0.025957719286286
  29    -0.040169355505948
  30    -0.044679107114589
  31    -0.0020031025121034
  32    0.0028548031982573
  33    -7.5287656029079e-05
  34    0.0013520024569227