[Molden Format]
made by pyscf v[2.0.1]
[Atoms] (AU)
C   1   6     0.00000000000000     0.00000000000000     0.00000000000000
C   2   6     2.85272299873892     0.00000000000000     0.00000000000000
H   3   1     3.62066923017674     0.00000000000000     1.90331545357504
F   4   9     3.65943188126013    -2.04308229183900    -1.24074875274501
F   5   9     3.65943188126013     2.04308229183900    -1.24074875274501
F   6   9    -0.80670888252121    -2.22749704090168     0.86712147444210
H   7   1    -0.76794623143782     0.33050726003861    -1.87439981510865
F   8   9    -0.80670888252121     1.79658952118831     1.57667650804493
[GTO]
1 0
 s    8 1.00
                  6665  0.00069158396281299
                  1000  0.0053257961529341
                   228   0.027060721042034
                 64.71    0.10165684614077
                 21.06     0.2745748236174
                 7.495    0.44829431892377
                 2.797    0.28490261071525
                0.5215   0.015194859206082
 s    8 1.00
                  6665  -0.00029326965268655
                  1000  -0.0023180354739745
                   228  -0.011499786038565
                 64.71  -0.046826727009787
                 21.06   -0.12846616875047
                 7.495   -0.30126627246289
                 2.797   -0.25563070233011
                0.5215      1.093793361012
 s    1 1.00
                0.1596                   1
 p    3 1.00
                 9.439   0.056979251590039
                 2.002    0.31320721150073
                0.5456    0.76037674173753
 p    1 1.00
                0.1517                   1
 d    1 1.00
                  0.55                   1

2 0
 s    8 1.00
                  6665  0.00069158396281299
                  1000  0.0053257961529341
                   228   0.027060721042034
                 64.71    0.10165684614077
                 21.06     0.2745748236174
                 7.495    0.44829431892377
                 2.797    0.28490261071525
                0.5215   0.015194859206082
 s    8 1.00
                  6665  -0.00029326965268655
                  1000  -0.0023180354739745
                   228  -0.011499786038565
                 64.71  -0.046826727009787
                 21.06   -0.12846616875047
                 7.495   -0.30126627246289
                 2.797   -0.25563070233011
                0.5215      1.093793361012
 s    1 1.00
                0.1596                   1
 p    3 1.00
                 9.439   0.056979251590039
                 2.002    0.31320721150073
                0.5456    0.76037674173753
 p    1 1.00
                0.1517                   1
 d    1 1.00
                  0.55                   1

3 0
 s    3 1.00
                 13.01   0.033498726389998
                 1.962    0.23480080117413
                0.4446     0.8136829578829
 s    1 1.00
                 0.122                   1
 p    1 1.00
                 0.727                   1

4 0
 s    8 1.00
                 14710  0.00072067370873197
                  2207  0.0055504869689163
                 502.8   0.028254207662589
                 142.6    0.10639582836653
                 46.47    0.28668420124307
                  16.7    0.44843796582416
                 6.356    0.26464118141135
                 1.316   0.015326060993048
 s    8 1.00
                 14710  -0.00032119389049893
                  2207  -0.0025461915683188
                 502.8  -0.012643359507821
                 142.6   -0.05195749170489
                 46.47   -0.14344713812646
                  16.7   -0.33243762329603
                 6.356   -0.21865906750347
                 1.316     1.0955904138622
 s    1 1.00
                0.3897                   1
 p    3 1.00
                 22.67   0.064834021493887
                 4.977    0.34053535983101
                 1.347    0.73464640679382
 p    1 1.00
                0.3471                   1
 d    1 1.00
                  1.64                   1

5 0
 s    8 1.00
                 14710  0.00072067370873197
                  2207  0.0055504869689163
                 502.8   0.028254207662589
                 142.6    0.10639582836653
                 46.47    0.28668420124307
                  16.7    0.44843796582416
                 6.356    0.26464118141135
                 1.316   0.015326060993048
 s    8 1.00
                 14710  -0.00032119389049893
                  2207  -0.0025461915683188
                 502.8  -0.012643359507821
                 142.6   -0.05195749170489
                 46.47   -0.14344713812646
                  16.7   -0.33243762329603
                 6.356   -0.21865906750347
                 1.316     1.0955904138622
 s    1 1.00
                0.3897                   1
 p    3 1.00
                 22.67   0.064834021493887
                 4.977    0.34053535983101
                 1.347    0.73464640679382
 p    1 1.00
                0.3471                   1
 d    1 1.00
                  1.64                   1

6 0
 s    8 1.00
                 14710  0.00072067370873197
                  2207  0.0055504869689163
                 502.8   0.028254207662589
                 142.6    0.10639582836653
                 46.47    0.28668420124307
                  16.7    0.44843796582416
                 6.356    0.26464118141135
                 1.316   0.015326060993048
 s    8 1.00
                 14710  -0.00032119389049893
                  2207  -0.0025461915683188
                 502.8  -0.012643359507821
                 142.6   -0.05195749170489
                 46.47   -0.14344713812646
                  16.7   -0.33243762329603
                 6.356   -0.21865906750347
                 1.316     1.0955904138622
 s    1 1.00
                0.3897                   1
 p    3 1.00
                 22.67   0.064834021493887
                 4.977    0.34053535983101
                 1.347    0.73464640679382
 p    1 1.00
                0.3471                   1
 d    1 1.00
                  1.64                   1

7 0
 s    3 1.00
                 13.01   0.033498726389998
                 1.962    0.23480080117413
                0.4446     0.8136829578829
 s    1 1.00
                 0.122                   1
 p    1 1.00
                 0.727                   1

8 0
 s    8 1.00
                 14710  0.00072067370873197
                  2207  0.0055504869689163
                 502.8   0.028254207662589
                 142.6    0.10639582836653
                 46.47    0.28668420124307
                  16.7    0.44843796582416
                 6.356    0.26464118141135
                 1.316   0.015326060993048
 s    8 1.00
                 14710  -0.00032119389049893
                  2207  -0.0025461915683188
                 502.8  -0.012643359507821
                 142.6   -0.05195749170489
                 46.47   -0.14344713812646
                  16.7   -0.33243762329603
                 6.356   -0.21865906750347
                 1.316     1.0955904138622
 s    1 1.00
                0.3897                   1
 p    3 1.00
                 22.67   0.064834021493887
                 4.977    0.34053535983101
                 1.347    0.73464640679382
 p    1 1.00
                0.3471                   1
 d    1 1.00
                  1.64                   1

[5d]
[7f]
[9g]

[MO]
 Sym= A
 Ene=               0
 Spin= Alpha
 Occup=    1.00000
   1    -0.00019479581009748
   2    -0.00085685391175086
   3     0.002726165179648
   4    -0.0010579768900998
   5    1.3846577536965e-05
   6    -0.00012352773170747
   7     0.001124187712602
   8    -1.7167655239538e-05
   9    0.00035528619084478
  10    7.4726818569646e-05
  11    -1.9927571706213e-05
  12    1.4708532067872e-05
  13    -0.00019898982338288
  14    9.4928560441582e-06
  15       1.0018572175197
  16    -0.00095041324577267
  17    -0.0094612275547564
  18    0.0001625375287305
  19    2.0693086727381e-05
  20    -0.003051851311337
  21    0.0016211086983462
  22    3.0220403702044e-05
  23    -0.0016062268926498
  24    -0.00010310497796621
  25    -0.00012048120874441
  26    -6.4336623173869e-06
  27    -0.00031014495899673
  28    4.5468502012334e-06
  29    -0.0030666845367573
  30    0.00087024783239596
  31    -5.4867950069088e-05
  32    -2.9675824759818e-06
  33    0.00032727599512621
  34    0.0001330781534412
  35    -0.00011507600031248
  36    -0.00067386124929439
  37    0.00045036466579544
  38    -0.0010550026136154
  39    -0.00056189118962906
  40    0.00041386162024712
  41    -0.0016043408573106
  42    -0.00066785332571689
  43    3.8158936656396e-05
  44    6.3527606555156e-05
  45    -0.00021822797033809
  46    0.00014619917096243
  47    0.00011887933505524
  48    0.00014225462629744
  49    -9.7872048303944e-05
  50    -0.00073114827740136
  51    0.00044743505933762
  52    0.0010568031750505
  53    -0.00056143693415188
  54    0.00042214709618657
  55     0.001618005250356
  56    -0.00067932138900501
  57    3.8362456758137e-05
  58    6.4505586293934e-05
  59    0.00022126745900849
  60    0.00014761479309477
  61    -0.00012069655114811
  62    -1.6074378417697e-05
  63    5.2168041106967e-05
  64    4.6447802324382e-05
  65    0.00019418842948143
  66    0.00010706011102954
  67    3.2348912610867e-05
  68    0.00035259780078373
  69    -1.8779683797157e-05
  70    -1.2038903953548e-05
  71    -1.6716056279827e-05
  72    -5.7785865133323e-06
  73    -8.4627503804974e-06
  74    1.6876842190057e-05
  75    -5.0490987474633e-07
  76    -9.1552281527966e-06
  77    0.00038413218690156
  78    6.3902936239935e-05
  79    -5.951678557801e-06
  80    3.0242248007371e-05
  81    -2.3697715128046e-06
  82    9.3419039791489e-05
  83    1.1989957247113e-05
  84    0.00023992723502358
  85    -0.00011680354478576
  86    -7.6391831429159e-06
  87    0.0003507282054731
  88    2.0028144545871e-05
  89    -1.7734956659712e-05
  90    -8.2960978074373e-06
  91    -5.5200886774761e-06
  92    1.234842465835e-05
  93    1.6161139240363e-05
  94    4.2973008620125e-06
 Sym= A
 Ene=               1
 Spin= Alpha
 Occup=    1.00000
   1       1.0018572179272
   2    -0.00095039858214029
   3    -0.0094612284049388
   4    -0.00016256974094962
   5    -0.00050957313606533
   6    0.0030090723994798
   7    -0.0016211168958555
   8    -0.00024915599075083
   9     0.001587066753086
  10    -8.8436000866314e-05
  11    -0.00011944079386191
  12    8.962231863568e-05
  13    -0.00030167961467061
  14    1.6444392453172e-05
  15    -0.00019479649724017
  16    -0.00085686595109701
  17    0.0027261573700677
  18    0.0010579969760154
  19    -7.8146418705965e-06
  20    0.00012405721026431
  21    -0.0011241819172535
  22    4.4787463627052e-05
  23    -0.00035286822750034
  24    7.2187284882812e-05
  25    -2.1273021086909e-05
  26    -1.9263583526201e-06
  27    -0.00020045712082963
  28    -5.8883337472782e-06
  29    -9.1525384263943e-06
  30    0.00038413630803479
  31    -6.3902543073231e-05
  32    -6.0971479389925e-07
  33    -3.0816304817916e-05
  34    -1.6074398543226e-05
  35    5.2167495574715e-05
  36    4.6448088628344e-05
  37    -0.00019418762016072
  38    0.00011105036965093
  39    -1.3262688007566e-05
  40    -0.00035259845545628
  41    -2.058508702193e-05
  42    8.5976683251216e-06
  43    -1.3893894091307e-05
  44    -5.6029952235156e-06
  45    1.001761897096e-05
  46    1.8506043469003e-05
  47    1.5009481445998e-06
  48    -2.3697446311827e-06
  49    9.3418038716872e-05
  50    1.1990083831677e-05
  51    -0.00023992978221838
  52    -0.00011635701481952
  53    -1.2761540785074e-05
  54    -0.00035073120657683
  55    1.6642991965924e-05
  56    2.0942058743058e-05
  57    -1.2000429659749e-05
  58    -6.1822970649509e-06
  59    -1.1910136054048e-05
  60    1.4022342514177e-05
  61    -3.2736638811763e-06
  62    0.00013307766917676
  63    -0.00011507066568575
  64    -0.00067385607424259
  65    -0.00045035879763601
  66    -0.001136524620071
  67    0.00037014925250317
  68    -0.00041385630798831
  69    -0.0016959250505563
  70    0.00037911319638533
  71    9.7253640668604e-05
  72    4.1919224211244e-05
  73    0.00016876232438219
  74    0.00018031676068463
  75    -0.00012810454326972
  76    -0.0030666619516961
  77    0.00087025449249364
  78    5.4868185694711e-05
  79    5.3907855310606e-05
  80    -0.00032281708251078
  81    0.00014225423397567
  82    -9.7869622295773e-05
  83    -0.00073114538544998
  84    -0.0004474267491101
  85    0.00094325180277675
  86    0.00073640962029336
  87    -0.0004221398507462
  88    0.0014754589073074
  89    0.00094995897640818
  90    -3.2766180722557e-05
  91    8.4484265219568e-05
  92    -0.00024452926860638
  93    0.00010654813179365
  94    0.00010766160200917
 Sym= A
 Ene=               2
 Spin= Alpha
 Occup=    1.00000
   1    -3.4379966058301e-05
   2    7.9162876854667e-05
   3    0.0038483802103886
   4    -0.00026666880831287
   5    -0.00052282729798886
   6    0.00020173424182104
   7    0.00032435465322235
   8    -0.0013131365614661
   9    0.00079271213279128
  10    1.2978833764827e-05
  11    -2.5274946585786e-06
  12    4.6071580037004e-05
  13    5.9284829142215e-05
  14    -1.9583602780522e-05
  15    6.0936312026571e-05
  16    8.428443475976e-05
  17    -0.0015092873623951
  18    0.00013077229887519
  19    -2.7194818455611e-05
  20    9.4115713577441e-06
  21    0.00083637295642087
  22    0.00025735001647531
  23    -0.00012482155731732
  24    9.249308971194e-06
  25    1.6584788158729e-05
  26    -2.4321630548071e-05
  27    -0.00010746028159737
  28    -9.0786775859094e-06
  29    0.00011668870340914
  30    -0.00016315995593102
  31    4.3070543516878e-05
  32    3.7051354373654e-06
  33    3.7007538125426e-06
  34    1.246868937053e-05
  35    2.8318961698931e-05
  36    4.1379702546543e-05
  37    -2.3038906556562e-05
  38    -9.9606190375646e-06
  39    -1.8786356351709e-05
  40    4.6727510467346e-05
  41    1.5939160792136e-05
  42    4.2708107281599e-05
  43    8.7502097040731e-06
  44    1.0688665616381e-05
  45    -4.3095867738476e-06
  46    -1.8386887382927e-05
  47    -7.793028366333e-07
  48    -2.4740709898823e-05
  49    -4.1228149210106e-05
  50    0.00011669800402722
  51    2.9470266302179e-05
  52    -6.2903978471326e-06
  53    9.8743477601319e-07
  54    -0.00018547674620921
  55    -2.5020609528549e-05
  56    9.1218364026511e-06
  57    -2.3130963971718e-06
  58    3.7827497328695e-06
  59    3.6901933620639e-06
  60    4.1859932741561e-07
  61    -1.991899759574e-06
  62       1.0010142746117
  63    -0.0044007077396537
  64    -0.011635626137935
  65     0.001038797706709
  66    0.0028630022970663
  67    -0.0010982798182952
  68    -5.3324031925619e-05
  69    4.1747159266402e-06
  70    -5.9686322916367e-05
  71    4.3931734430183e-05
  72    3.3576959701579e-05
  73    7.5482727794857e-05
  74    9.5563475650407e-05
  75    -7.7606413128172e-05
  76    -0.00023743853993455
  77    -0.00014184647186807
  78    -6.1192430308981e-07
  79    0.0001596940506327
  80    -9.1982613097456e-05
  81    9.5367111231953e-05
  82    0.00017474321060034
  83    -0.00069593955729728
  84    -6.0147476699562e-06
  85    -1.2635728631163e-05
  86    4.865417383008e-05
  87    -4.9454014641223e-05
  88    0.0004111798993014
  89    -5.0443746575198e-05
  90    1.9098423272388e-05
  91    -1.02573288354e-05
  92    -1.2990719879728e-05
  93    1.9546614523159e-05
  94    1.4539704637964e-05
 Sym= A
 Ene=               3
 Spin= Alpha
 Occup=    1.00000
   1    6.0935247887555e-05
   2    8.431470085524e-05
   3    -0.0015091404170652
   4    -0.0001307163319737
   5    -2.5132764112881e-05
   6    -1.3983463753713e-05
   7    -0.00083628999276919
   8    0.00023178824996224
   9    0.00016765797013625
  10    1.884031445132e-05
  11    1.7914383855568e-05
  12    3.8485606435996e-05
  13    -0.00010192089864925
  14    6.0692029912482e-06
  15    -3.4412155328019e-05
  16    7.9039817175577e-05
  17    0.0038482716504761
  18    0.00026663489482642
  19    -0.0004796978217897
  20    -0.00028937396993927
  21    -0.00032427360520914
  22    -0.0011555369305829
  23    -0.0010087337405088
  24    -2.8196681291383e-06
  25    8.8355303247405e-07
  26    -5.727350000328e-05
  27    5.0186276361809e-05
  28    1.9679086136577e-05
  29    -0.00023746531261498
  30    -0.00014182835683818
  31    6.0314264692619e-07
  32    0.00014130464909163
  33    0.00011831593687123
  34       1.0010143104662
  35    -0.0043987804109679
  36    -0.011633421340397
  37    -0.001037738074561
  38    0.0026282595063241
  39    0.0015784788882635
  40    5.4053441255018e-05
  41    -6.6235360121857e-06
  42    5.9319245175426e-05
  43    1.7096457496661e-05
  44    4.6555145719727e-05
  45    -0.00010029216234378
  46    8.006601805351e-05
  47    7.0616666123141e-05
  48    9.536700204551e-05
  49    0.00017473476045557
  50    -0.00069595058608537
  51    6.0130451669143e-06
  52    -3.9825794256728e-06
  53    -5.0117294954397e-05
  54    4.944645240709e-05
  55     0.000396183022405
  56    0.00012107622522607
  57    2.1573261069821e-05
  58    -1.2627962922105e-05
  59    3.2075786716665e-06
  60    2.0976952776163e-05
  61    -1.2538312483727e-05
  62    1.2470421193382e-05
  63    2.8325303227252e-05
  64    4.1371609708316e-05
  65    2.3044662961517e-05
  66    -1.3067386863853e-05
  67    1.6764128053508e-05
  68    -4.6732249563509e-05
  69    2.310817895653e-05
  70    -3.9303120754656e-05
  71    1.0111239071481e-05
  72    1.0661988032673e-05
  73    4.6020342155132e-06
  74    -1.7601566226881e-05
  75    -1.0877636483756e-06
  76    0.00011669070738115
  77    -0.00016315124477949
  78    -4.3071278112612e-05
  79    4.2912128195098e-06
  80    -3.0008241000077e-06
  81    -2.4739676267056e-05
  82    -4.123539148608e-05
  83    0.00011666120785455
  84    -2.9490503114996e-05
  85    -6.0130707129967e-06
  86    -2.0525482158759e-06
  87    0.0001854582617322
  88    -2.3042454793592e-05
  89    -1.3317992728668e-05
  90    -3.3128621724873e-06
  91    4.0701149067605e-06
  92    -2.8539989726972e-06
  93    -1.5730241091701e-07
  94    1.3037583400353e-06
 Sym= A
 Ene=               4
 Spin= Alpha
 Occup=    1.00000
   1    6.2562693413955e-05
   2    9.193160522243e-05
   3    -0.0014450173147927
   4    -0.00014160989164173
   5    3.0356026915832e-05
   6    -2.3804335214353e-05
   7    -0.00078287393236645
   8    -0.0001650727261978
   9    0.00019741589000103
  10    3.7671184840226e-05
  11    3.4789149686027e-05
  12    -4.9444175360515e-05
  13    -9.6232887687054e-05
  14    -5.4630553896961e-06
  15    -2.8381761716475e-05
  16    8.862632250214e-05
  17    0.0037586776235496
  18    0.00026739716981503
  19    0.00047540328013918
  20    -0.00029045435130097
  21    -0.00030387554933707
  22    0.0011325330439201
  23    -0.00097410075881255
  24    5.3584207388553e-06
  25    1.2490938850309e-05
  26    5.4247639136993e-05
  27    5.1152939342528e-05
  28    -1.5612850658344e-05
  29    -0.00024706695736841
  30    -0.00014053599733227
  31    3.5343917768184e-06
  32    -0.00013993410500137
  33    0.00011991859934558
  34    9.3496776188627e-05
  35    0.00017056132406981
  36    -0.00067951900702438
  37    4.8689922595225e-06
  38    1.2980400540145e-06
  39    -4.7628421653369e-05
  40    5.2894203176632e-05
  41    -0.00038377266732382
  42    0.00011527337118159
  43    2.1204653583632e-05
  44    -1.2346621459427e-05
  45    -2.6680586751763e-06
  46    1.9523957495924e-05
  47    1.2653369766143e-05
  48       1.0010111881809
  49    -0.0043854043931488
  50    -0.011579643894845
  51    -0.0010541067182041
  52    -0.0026311226024468
  53    0.0015398308674419
  54    5.3292734628972e-05
  55    -1.9430770493622e-05
  56    2.5528005576145e-05
  57    1.5893225165253e-05
  58    4.7804697473105e-05
  59    0.00010107493879504
  60      7.8932040054e-05
  61    -6.8279365371879e-05
  62    -2.4931058517332e-05
  63    -4.2389393181518e-05
  64    0.00012486172191379
  65    -2.4248657503202e-05
  66    5.4632673264126e-06
  67    5.0691967001565e-06
  68    0.00016221129016594
  69    1.9861084981067e-05
  70    -2.7954690938972e-05
  71    5.1995786697951e-06
  72    3.0932298525883e-06
  73    -2.4355275684387e-06
  74    3.2638503098614e-06
  75    -4.7497378269545e-06
  76    8.5409358402359e-05
  77    -0.00012973114346856
  78    -6.3564948001154e-05
  79    -1.7417155539774e-05
  80    -1.6704307956386e-05
  81    2.726533747134e-05
  82    5.8417014841717e-05
  83    -2.221034182388e-05
  84    3.3026628098089e-05
  85    3.3189416861213e-07
  86    2.8271745105902e-06
  87    -5.7719964032126e-05
  88    -1.7065306145388e-05
  89    -1.4203796422711e-05
  90    7.6751031667124e-06
  91    1.0491853609017e-05
  92    2.0315178539649e-06
  93    -1.6480428205394e-05
  94    -3.1350520519096e-06
 Sym= A
 Ene=               5
 Spin= Alpha
 Occup=    1.00000
   1    -2.8347942858775e-05
   2    8.8769826342759e-05
   3     0.003758791349547
   4    -0.00026744762724889
   5    0.00041791466375303
   6    0.00036872664380535
   7    0.00030395780969547
   8    0.00094618347809436
   9    0.0011559206419784
  10    -1.2271634331899e-05
  11    1.5046962037183e-05
  12    -6.1310947235965e-05
  13    4.0947655433805e-05
  14    1.3246161287829e-05
  15    6.2562967037519e-05
  16    9.1894308653732e-05
  17    -0.0014451663750056
  18    0.00014167325271717
  19    2.5776515090584e-05
  20    2.8719689026396e-05
  21    0.00078296387540963
  22    -0.00012826266219038
  23    -0.00022302476694444
  24    5.3126024907708e-05
  25    3.5202143129976e-05
  26    5.1767709973932e-05
  27    -8.731302969095e-05
  28    -6.6925940126739e-07
  29    8.5399335604653e-05
  30    -0.00012975835515291
  31    6.3563228977089e-05
  32    -2.0052825307664e-05
  33    1.3428319316635e-05
  34    -2.493202192533e-05
  35    -4.238022281462e-05
  36    0.00012490182163338
  37    2.422458226164e-05
  38    6.2761630666664e-06
  39    -4.0313409964099e-06
  40    -0.00016223398180647
  41    1.4724094706601e-05
  42    3.0985643753085e-05
  43    5.6010534125292e-06
  44    3.8717786193643e-06
  45    1.9027280644285e-07
  46    3.4941944145452e-06
  47    4.1416999767559e-06
  48    2.726313877252e-05
  49    5.8412882188477e-05
  50    -2.2190063819069e-05
  51    -3.3027055773968e-05
  52    8.1401328994856e-07
  53    -2.7316605986711e-06
  54    5.7708362504675e-05
  55    -1.9284514636168e-05
  56    1.1016644443248e-05
  57     7.15651832186e-06
  58    1.0876652078879e-05
  59    -1.3640196000841e-06
  60    -1.6779987984027e-05
  61    1.2646319630137e-06
  62    9.3496654764013e-05
  63    0.00017056863362172
  64    -0.00067950570388857
  65    -4.8684616382965e-06
  66    -6.9837223540792e-06
  67    4.7122756434848e-05
  68    -5.2898819521009e-05
  69    -0.00035791920438618
  70    -0.00018016534503955
  71    2.052462747918e-05
  72    -1.4354360860753e-05
  73    -7.1113593429653e-06
  74    1.9129715133137e-05
  75    -1.0316898899355e-05
  76    -0.0002470390949926
  77    -0.00014055814447314
  78    -3.5437473441969e-06
  79    -0.00011697426076177
  80    -0.00014239295538767
  81       1.0010111500431
  82    -0.0043874211731361
  83    -0.011581956489321
  84    0.0010552382897295
  85    -0.0023242959630697
  86    -0.0019737484266283
  87    -5.2515411006186e-05
  88    -1.5072669837946e-05
  89    -2.8801971458834e-05
  90    -1.6827612922802e-05
  91    5.8917943231414e-05
  92    -0.00011317523045777
  93    6.0044171079369e-05
  94    5.8921769287013e-05
 Sym= A
 Ene=               6
 Spin= Alpha
 Occup=    1.00000
   1    -0.0024049399011013
   2    -0.0033812221359744
   3     0.012700883351789
   4    0.0094300751640169
   5    -0.0093829820384952
   6     0.010983537170996
   7     0.031365720690995
   8    -0.027986724707303
   9     0.011917842520896
  10     0.030344679668308
  11     0.012225792105808
  12      0.01125174996839
  13    -0.0043355688001803
  14      0.02271145567023
  15    -0.001338791094046
  16    -0.024626382672521
  17    -0.074608165937003
  18     0.032488636262342
  19    0.0027689207512848
  20    -0.0065007246099732
  21     0.017034761384013
  22     0.025180538629342
  23    -0.0046917878393961
  24    0.00015806532282177
  25    0.0007575906419555
  26    0.0016980264699814
  27    -0.00089677319411565
  28    0.00064552933727771
  29    -0.0060255408249357
  30     0.027847297389344
  31    -0.0023393260965891
  32    4.9431089951893e-05
  33    0.00035618207930368
  34    -0.0011870059782911
  35    0.0010393623490999
  36     0.019380056192069
  37    -0.0061353826606842
  38    0.0046993851004796
  39    0.0055170950141618
  40    -0.0047038580849073
  41    0.0073039482206853
  42    0.0079070495744437
  43    9.6841819715606e-05
  44    0.00039769859657849
  45    0.0001187490307086
  46    -0.00048177938396853
  47    0.00043519087136447
  48    0.00046613275607316
  49    0.0011632172574371
  50    -0.0026642718713911
  51    -0.0021868188383572
  52    -0.0022335542025789
  53    3.7808986724572e-05
  54    -0.0032698818888687
  55    -0.0040545054472118
  56    -0.0011457418393076
  57    -2.3000397554287e-05
  58     0.000159723171663
  59    0.00011267335266895
  60    -0.00022558191142141
  61    -0.00037372395214745
  62    0.0010513175188468
  63    -0.0015711879788528
  64    -0.016804748159334
  65    -0.0039655502605928
  66    -0.0062874881887953
  67    -0.0023305818804655
  68    -0.0063952704564226
  69    -0.0066130059708602
  70    -0.00071280897809429
  71    0.00061939802908124
  72    0.00015858019778619
  73    0.00031593549764668
  74    -0.00025372545365136
  75    0.00038588083160132
  76      0.04127518888485
  77     0.044905323995943
  78    -0.0022905758353084
  79    0.0031590432179519
  80    0.00029073320656246
  81    -0.0014655355526492
  82    -0.0004020467729903
  83      0.01225598148419
  84      0.49223556393372
  85     -0.15174104774543
  86      0.42557490059098
  87      0.34187828945729
  88     -0.10626842989455
  89      0.29244381643753
  90    -0.0099339984336679
  91    -0.0030975326550786
  92    -0.004439715769802
  93     0.001392480912493
  94    -0.0087512639829054
 Sym= A
 Ene=               7
 Spin= Alpha
 Occup=    1.00000
   1    0.0013385927300541
   2     0.024625124061246
   3     0.074607644574711
   4     0.032487174762183
   5    -0.0015978949418448
   6    -0.0068829246570926
   7     0.017034212014211
   8    -0.023982661988878
   9    -0.0089936384428193
  10    0.00032858405923764
  11    -0.00063398389089227
  12    0.0014890204797295
  13     0.001177708023866
  14    0.0007672841123005
  15    0.0024047503772402
  16    0.0033808010705156
  17    -0.012702247543465
  18    0.0094295651244466
  19     0.007335425482034
  20     0.012446483353987
  21     0.031364992182881
  22     0.025493834263903
  23     0.016597796561539
  24    -0.025753650321568
  25    -0.0080955802069757
  26     0.018820102071082
  27    0.0069851207171917
  28     0.024488815713313
  29    -0.041275979645771
  30    -0.044905692382625
  31    -0.0022906109586596
  32    -0.0031615603470966
  33    -0.00026230798633204
  34     -0.00105140381949
  35    0.0015719821966915
  36     0.016807443587009
  37    -0.0039657055805506
  38     0.006599040317071
  39    -0.0012031201970393
  40    -0.0063955048764656
  41    0.0066385229850994
  42    0.00044665472120967
  43    -0.00050445397266322
  44    -8.912669387443e-05
  45    0.00043697828049094
  46    0.00032008932698629
  47    0.00040752827434945
  48    0.0014645987007325
  49    0.00041016224559878
  50    -0.012246597327103
  51      0.49221566020767
  52     0.075556037559012
  53      0.44547759083398
  54      0.34186445896758
  55     0.053885872990932
  56      0.30646706664527
  57    0.0082063564962235
  58    0.0015304291468775
  59    -0.0068764220503464
  60    -0.0023896435706531
  61    -0.0091559726672295
  62    0.0011869670406534
  63    -0.0010392623749266
  64    -0.019379364307754
  65    -0.0061349922485973
  66    -0.0055857973038832
  67     0.004617207563906
  68    -0.004703391713272
  69    -0.008565785826463
  70    0.0065185448265252
  71    -6.9864617850357e-05
  72    -0.000316081743047
  73    5.7878540026246e-05
  74    0.00049733401490351
  75    0.00049761846858014
  76    0.0060253455396453
  77     -0.02784730831575
  78    -0.0023393510173247
  79    -0.00011053316784059
  80    0.0003421561352955
  81    -0.00046614252167642
  82    -0.0011633732875841
  83    0.0026640435261189
  84    -0.0021870954928707
  85    0.0021929376972337
  86    0.00042535594710482
  87    -0.0032699503386339
  88     0.004191849875029
  89    -0.00042405957070903
  90    4.9439256650796e-05
  91    -0.00022219394995409
  92    6.0473451034658e-05
  93    0.00024085737122538
  94    -0.0003402725550492
 Sym= A
 Ene=               8
 Spin= Alpha
 Occup=    1.00000
   1    0.0016999157563898
   2     0.023444941267134
   3     0.068340880766894
   4     0.032735248149917
   5    0.0032433338300479
   6    -0.0034618507676542
   7     0.023438826409061
   8     0.028869349113822
   9    -0.0013865526387839
  10    -0.00030543013916858
  11    -0.00028693136220608
  12    -0.0018428494390576
  13    0.0013248633461804
  14    -0.00088949338240473
  15    0.0023810697537436
  16    0.0028445967679916
  17    -0.017146622776483
  18    0.0088715261886468
  19    -0.0086913324051282
  20     0.013677891133399
  21     0.033650186262442
  22    -0.027627260308961
  23     0.017409314221795
  24    -0.026639653958446
  25    -0.0074250950409142
  26    -0.019280454205766
  27    0.0056633602865014
  28    -0.024074998773221
  29    -0.042065457430872
  30    -0.047109441569635
  31    -0.0023046577635966
  32    0.0032069931988464
  33    -0.00017363383144584