[Molden Format]
made by pyscf v[2.0.1]
[Atoms] (AU)
C   1   6     0.00000000000000     0.00000000000000     0.00000000000000
C   2   6     2.85272299873892     0.00000000000000     0.00000000000000
H   3   1     3.62066923017674     0.00000000000000     1.90331545357504
F   4   9     3.65943188126013    -2.04308229183900    -1.24074875274501
F   5   9     3.65943188126013     2.04308229183900    -1.24074875274501
F   6   9    -0.80670888252121    -0.46714714892290     2.34423041954446
H   7   1    -0.76794623143782     1.78853148675225    -0.65097222422570
F   8   9    -0.80670888252121    -1.86469774548472    -1.49550828705448
[GTO]
1 0
 s    8 1.00
                  6665  0.00069158396281299
                  1000  0.0053257961529341
                   228   0.027060721042034
                 64.71    0.10165684614077
                 21.06     0.2745748236174
                 7.495    0.44829431892377
                 2.797    0.28490261071525
                0.5215   0.015194859206082
 s    8 1.00
                  6665  -0.00029326965268655
                  1000  -0.0023180354739745
                   228  -0.011499786038565
                 64.71  -0.046826727009787
                 21.06   -0.12846616875047
                 7.495   -0.30126627246289
                 2.797   -0.25563070233011
                0.5215      1.093793361012
 s    1 1.00
                0.1596                   1
 p    3 1.00
                 9.439   0.056979251590039
                 2.002    0.31320721150073
                0.5456    0.76037674173753
 p    1 1.00
                0.1517                   1
 d    1 1.00
                  0.55                   1

2 0
 s    8 1.00
                  6665  0.00069158396281299
                  1000  0.0053257961529341
                   228   0.027060721042034
                 64.71    0.10165684614077
                 21.06     0.2745748236174
                 7.495    0.44829431892377
                 2.797    0.28490261071525
                0.5215   0.015194859206082
 s    8 1.00
                  6665  -0.00029326965268655
                  1000  -0.0023180354739745
                   228  -0.011499786038565
                 64.71  -0.046826727009787
                 21.06   -0.12846616875047
                 7.495   -0.30126627246289
                 2.797   -0.25563070233011
                0.5215      1.093793361012
 s    1 1.00
                0.1596                   1
 p    3 1.00
                 9.439   0.056979251590039
                 2.002    0.31320721150073
                0.5456    0.76037674173753
 p    1 1.00
                0.1517                   1
 d    1 1.00
                  0.55                   1

3 0
 s    3 1.00
                 13.01   0.033498726389998
                 1.962    0.23480080117413
                0.4446     0.8136829578829
 s    1 1.00
                 0.122                   1
 p    1 1.00
                 0.727                   1

4 0
 s    8 1.00
                 14710  0.00072067370873197
                  2207  0.0055504869689163
                 502.8   0.028254207662589
                 142.6    0.10639582836653
                 46.47    0.28668420124307
                  16.7    0.44843796582416
                 6.356    0.26464118141135
                 1.316   0.015326060993048
 s    8 1.00
                 14710  -0.00032119389049893
                  2207  -0.0025461915683188
                 502.8  -0.012643359507821
                 142.6   -0.05195749170489
                 46.47   -0.14344713812646
                  16.7   -0.33243762329603
                 6.356   -0.21865906750347
                 1.316     1.0955904138622
 s    1 1.00
                0.3897                   1
 p    3 1.00
                 22.67   0.064834021493887
                 4.977    0.34053535983101
                 1.347    0.73464640679382
 p    1 1.00
                0.3471                   1
 d    1 1.00
                  1.64                   1

5 0
 s    8 1.00
                 14710  0.00072067370873197
                  2207  0.0055504869689163
                 502.8   0.028254207662589
                 142.6    0.10639582836653
                 46.47    0.28668420124307
                  16.7    0.44843796582416
                 6.356    0.26464118141135
                 1.316   0.015326060993048
 s    8 1.00
                 14710  -0.00032119389049893
                  2207  -0.0025461915683188
                 502.8  -0.012643359507821
                 142.6   -0.05195749170489
                 46.47   -0.14344713812646
                  16.7   -0.33243762329603
                 6.356   -0.21865906750347
                 1.316     1.0955904138622
 s    1 1.00
                0.3897                   1
 p    3 1.00
                 22.67   0.064834021493887
                 4.977    0.34053535983101
                 1.347    0.73464640679382
 p    1 1.00
                0.3471                   1
 d    1 1.00
                  1.64                   1

6 0
 s    8 1.00
                 14710  0.00072067370873197
                  2207  0.0055504869689163
                 502.8   0.028254207662589
                 142.6    0.10639582836653
                 46.47    0.28668420124307
                  16.7    0.44843796582416
                 6.356    0.26464118141135
                 1.316   0.015326060993048
 s    8 1.00
                 14710  -0.00032119389049893
                  2207  -0.0025461915683188
                 502.8  -0.012643359507821
                 142.6   -0.05195749170489
                 46.47   -0.14344713812646
                  16.7   -0.33243762329603
                 6.356   -0.21865906750347
                 1.316     1.0955904138622
 s    1 1.00
                0.3897                   1
 p    3 1.00
                 22.67   0.064834021493887
                 4.977    0.34053535983101
                 1.347    0.73464640679382
 p    1 1.00
                0.3471                   1
 d    1 1.00
                  1.64                   1

7 0
 s    3 1.00
                 13.01   0.033498726389998
                 1.962    0.23480080117413
                0.4446     0.8136829578829
 s    1 1.00
                 0.122                   1
 p    1 1.00
                 0.727                   1

8 0
 s    8 1.00
                 14710  0.00072067370873197
                  2207  0.0055504869689163
                 502.8   0.028254207662589
                 142.6    0.10639582836653
                 46.47    0.28668420124307
                  16.7    0.44843796582416
                 6.356    0.26464118141135
                 1.316   0.015326060993048
 s    8 1.00
                 14710  -0.00032119389049893
                  2207  -0.0025461915683188
                 502.8  -0.012643359507821
                 142.6   -0.05195749170489
                 46.47   -0.14344713812646
                  16.7   -0.33243762329603
                 6.356   -0.21865906750347
                 1.316     1.0955904138622
 s    1 1.00
                0.3897                   1
 p    3 1.00
                 22.67   0.064834021493887
                 4.977    0.34053535983101
                 1.347    0.73464640679382
 p    1 1.00
                0.3471                   1
 d    1 1.00
                  1.64                   1

[5d]
[7f]
[9g]

[MO]
 Sym= A
 Ene=               0
 Spin= Alpha
 Occup=    1.00000
   1       1.0019146224275
   2    0.0042348819527985
   3    -0.0074848092500835
   4    -0.00056932633023076
   5    -0.0010219751803269
   6    0.00042698567618782
   7    -0.0015864741251339
   8    -0.00057798515132521
   9    0.00033462130507435
  10    0.00028402294934903
  11    -3.3457100392566e-05
  12    0.00014638070490456
  13    -0.00012189247852751
  14    0.00010964333353256
  15    -0.00023218824530725
  16    3.2012784993986e-05
  17    0.0032861314675486
  18    -0.00047372177855944
  19    1.9556585249664e-05
  20    8.8329297940599e-07
  21    -0.0016115800325672
  22    0.00012246564029179
  23    -0.00039493698583771
  24    -7.0221363593688e-05
  25    2.1695274113809e-05
  26    -4.9301967567444e-06
  27    5.1497980140945e-05
  28    -0.00010944906270018
  29    -2.5057752526157e-05
  30    0.00041098257687657
  31    -9.7513902754188e-05
  32    2.2116777817476e-06
  33    -4.8756369825162e-05
  34    -5.42561992937e-06
  35    3.7553413851851e-06
  36    -0.00015925236348638
  37    -2.4794043530162e-05
  38    1.4863074450337e-05
  39    -2.1039822452244e-06
  40    -7.3501652669428e-05
  41    -9.9012310974065e-05
  42    5.2173138182613e-09
  43    -1.9566688601625e-05
  44    -9.3475155512247e-06
  45    2.4658491426758e-06
  46    3.0804863382954e-05
  47    -1.4934413748628e-05
  48    1.3391821995525e-05
  49    2.9732933812913e-05
  50    -0.00027412452756286
  51    2.4905386063719e-06
  52    1.0883939536636e-06
  53    -1.0045097648913e-05
  54    2.3282788768091e-06
  55    3.4745738459709e-05
  56    2.6338022627005e-06
  57    -1.5066130452475e-05
  58    -5.5524401055371e-06
  59    -1.5675647646408e-05
  60    1.6865642915979e-05
  61    9.1415629430859e-06
  62    0.00015901661039901
  63    0.00068354673914776
  64    -0.00017088878096381
  65    7.3707936778456e-05
  66    3.4781834450717e-05
  67    -0.00033256646801677
  68    -0.00014650129657515
  69    -0.00014784946441075
  70    0.0008639461955819
  71    -0.0001442267549466
  72    7.9285785659803e-05
  73    3.9905015737897e-05
  74    -2.0627494446188e-05
  75    -4.8664214058178e-06
  76    0.00095101003561291
  77    0.0015406609581712
  78    0.00021902397073303
  79    -6.9326360765867e-05
  80    1.3442825154998e-05
  81    0.00014261282863091
  82    0.00065009577360493
  83    -5.5067621936443e-05
  84    8.2666421839307e-05
  85    0.00023995546250624
  86    0.00023811018230599
  87    -0.0001591415792023
  88    -0.00062700610132241
  89    -0.00056738523179663
  90    -1.4448106837809e-05
  91    -5.4803190133885e-05
  92    -0.00013516694546593
  93    4.8980017076542e-05
  94    -5.1590878016947e-05
 Sym= A
 Ene=               1
 Spin= Alpha
 Occup=    1.00000
   1    -0.00023218779753429
   2    3.2037875105215e-05
   3    0.0032861466872092
   4    0.00047376206680451
   5    7.5178354053616e-06
   6    1.807802590806e-05
   7    0.0016115910866027
   8    -0.00032923457489715
   9    0.00025015913194695
  10    -1.3849609684375e-05
  11    0.00011026933952589
  12    1.8762184866232e-05
  13    8.4048373373154e-05
  14    1.7046772452835e-05
  15       1.0019146224302
  16    0.0042348847256662
  17    -0.007484793219799
  18    0.00056927491385072
  19    5.1695724347077e-05
  20    -0.0011063690725602
  21    0.0015864604160583
  22    0.00011675901778789
  23    -0.00065757542861195
  24    -8.0450206805086e-05
  25    -0.00011447199055119
  26    -6.7971140935563e-06
  27    -0.00033231462653868
  28    -6.0607931127212e-06
  29    0.0009510002715309
  30    0.0015406533811738
  31    -0.00021902486011042
  32    -1.1079025660889e-05
  33    -6.9742107607856e-05
  34    0.00014265212518688
  35    0.00065009216261092
  36    -5.5072185664246e-05
  37    -8.266239468637e-05
  38    0.00030579021420919
  39    0.00014405207119953
  40    0.00015914703078713
  41    -0.00074763610720757
  42    -0.00039513085919123
  43    4.2476775572136e-05
  44    2.9735513062159e-05
  45    -0.00011124350633678
  46    8.1846440397992e-05
  47    6.9143302930752e-05
  48    0.00015906705766837
  49    0.00068353844781384
  50    -0.00017089800588441
  51    -7.3691396379877e-05
  52    -0.00030058749662545
  53    0.00014642852717518
  54    0.00014651496689208
  55    0.00076129360493809
  56    -0.00043441950296137
  57    4.0367026165417e-05
  58    3.1690287457674e-05
  59    0.00011748608124055
  60    8.5948564565108e-05
  61    -7.2840139428787e-05
  62    1.3390227786964e-05
  63    2.9731603350738e-05
  64    -0.00027412931553426
  65    -2.4956027139271e-06
  66    -9.0629466845585e-06
  67    4.4589033355428e-06
  68    -2.334489252391e-06
  69    1.4361649646989e-05
  70    3.175036896253e-05
  71    7.1808781302564e-07
  72    -1.048978848215e-05
  73    -9.0419660752137e-06
  74    2.5978883218436e-05
  75    2.0911287996087e-06
  76    -2.5061485613902e-05
  77    0.0004109765817884
  78    9.7514750740241e-05
  79    -4.5059656866107e-05
  80    1.8753976347156e-05
  81    -5.4316925786489e-06
  82    3.7571443653499e-06
  83    -0.00015925158780004
  84    2.4782848978334e-05
  85    3.1042044390676e-06
  86    1.4685531586345e-05
  87    7.3491252217466e-05
  88    -3.3860616366092e-05
  89    -9.3043814827561e-05
  90    -1.8579730226958e-05
  91    1.0836938645142e-05
  92    2.8806417388027e-06
  93    3.1374886179771e-05
  94    1.3891887637338e-05
 Sym= A
 Ene=               2
 Spin= Alpha
 Occup=    1.00000
   1    8.7202747321188e-05
   2    0.00012489347373806
   3    -0.0016260404315824
   4    -0.0001407222142599
   5    3.5369715034536e-05
   6    -2.3772854123247e-05
   7    -0.00066199029445998
   8    -0.00025905676859293
   9    0.00027564290054796
  10    -1.7893162263307e-05
  11    2.7221941549487e-05
  12    -6.56009482872e-05
  13    -7.5314432435549e-05
  14    -3.6225313598672e-05
  15    -0.00018819633490267
  16    0.00027269920220909
  17     0.003628412208321
  18    0.00038856666832194
  19    0.00079964865903647
  20    -0.00049707418606335
  21    -0.00020571026349699
  22     0.001150582860335
  23    -0.0011013815130856
  24    -3.2331788315832e-05
  25    -5.4936229036267e-05
  26    -8.8038514196091e-05
  27    -6.5843091971778e-05
  28    6.2050117851481e-05
  29    -0.0002296520215808
  30    -8.3981990482184e-05
  31    -7.0875854773883e-06
  32    -0.00012767607858398
  33    0.0001009252662105
  34    0.0001002881630163
  35    0.00016849005764282
  36    -0.00071713086162426
  37    2.965094004832e-06
  38    -3.3989394565475e-05
  39    -4.1715290803234e-05
  40    3.982988039628e-05
  41    -0.00041652549416217
  42    0.00013733286675821
  43    1.7911718943075e-05
  44    -1.2053900544663e-05
  45    -3.2198682275397e-06
  46    1.7022524167829e-05
  47    1.1855981023533e-05
  48       1.0010234115795
  49    0.00089165174231087
  50    -0.0056326701008163
  51    -0.00073602404616279
  52    -0.0018550639401841
  53    0.0011328550897368
  54    0.00026558045235711
  55    0.00057228539056142
  56    -0.00026668666739147
  57    1.2527834878097e-05
  58    4.0775407014743e-05
  59    8.3707377873737e-05
  60    7.4138333808283e-05
  61    -5.8606586932472e-05
  62    -1.8352908099807e-05
  63    -2.8949289915683e-05
  64    0.0001320092934733
  65    -6.2377948311585e-06
  66    7.0611986421513e-06
  67    -1.2739350485311e-05
  68    0.00013485318962459
  69    1.858328734462e-05
  70    -4.7772545113603e-05
  71    2.7080014822144e-06
  72    -1.8319701036695e-06
  73    -1.3135202155851e-05
  74    -2.967932118405e-06
  75    1.0727161983002e-07
  76    7.191693682879e-05
  77    0.00010116864356335
  78    -3.3927724929639e-05
  79    2.7566033756628e-06
  80    -1.3742051992541e-05
  81    -6.7342216722366e-06
  82    -7.4806486028518e-06
  83    0.0001412551754061
  84    1.8835551507657e-05
  85    8.8027620513138e-06
  86    5.3855392309344e-06
  87    1.4475297990291e-05
  88    5.6411175937054e-05
  89    2.3216106356241e-05
  90    -4.0751684360158e-06
  91    4.4324561808817e-06
  92    1.2043335869532e-06
  93    -1.6849131727903e-05
  94    -1.7043548511977e-06
 Sym= A
 Ene=               3
 Spin= Alpha
 Occup=    1.00000
   1    -0.00018443506728967
   2    0.00030198321760114
   3    0.0036370882704906
   4    -0.00040179106189856
   5    -0.00020174418000833
   6    0.00095960417580554
   7    0.00020783986635865
   8    -0.00063865898677741
   9     0.001457178814073
  10    0.00011209225869376
  11    -7.791556299231e-05
  12    -3.0257721076867e-05
  13    1.6301450137096e-05
  14    3.0452047468624e-05
  15    8.7060933058494e-05
  16    0.00012419909397904
  17    -0.0016267218659197
  18    0.00014250033169112
  19    -1.0853149484121e-05
  20    4.4605685168741e-05
  21    0.00066829430928559
  22    0.00016864214177112
  23    -0.00033115055377593
  24    9.9771545528866e-05
  25    4.1749286057876e-05
  26    -1.6097858255934e-05
  27    -7.1203425706243e-06
  28    -1.263268074449e-05
  29    7.2319950991489e-05
  30    9.3053616824432e-05
  31    3.4165621268372e-05
  32    -1.1894802858175e-05
  33    7.3637088816641e-06
  34    -6.7447567045635e-06
  35    -7.3777402009671e-06
  36    0.00014191006392533
  37    -1.9319972843484e-05
  38    8.3485859070427e-06
  39    6.129944483442e-06
  40    -1.5781300921069e-05
  41    4.1557056609111e-05
  42    4.4085350780112e-05
  43    1.3577719971898e-05
  44    3.1263580942723e-06
  45    8.5948321040537e-06
  46    -6.7015842484332e-06
  47    -3.5108828942922e-06
  48    -1.836332295832e-05
  49    -2.8604881908241e-05
  50    0.00013391589890405
  51    5.164311146539e-06
  52    -1.0077879151985e-05
  53    1.0987597457399e-05
  54    -0.00013618235396229
  55    -3.8987476717814e-05
  56    3.3259838013274e-05
  57    8.753707540727e-06
  58    -7.0243691567046e-07
  59    -1.0579982151572e-05
  60    4.618491806946e-07
  61    1.6117730916312e-06
  62         1.00102336025
  63    0.00072945530596626
  64    -0.0058237235487093
  65    0.00078647804914325
  66    0.00044379607677187
  67    -0.0022441397883144
  68    -0.00023204160186396
  69    -4.6202931506337e-05
  70    0.00055291807705869
  71    -0.00010472851529607
  72    6.6967266319691e-05
  73    3.2425743747723e-05
  74    5.2293863174525e-06
  75    -1.791556637347e-05
  76    -0.00022845575445808
  77    -8.9690056502896e-05
  78    6.3022953213854e-06
  79    5.0886600577734e-05
  80    -0.00015302003534643
  81    0.00010010294540468
  82    0.00016757240863346
  83    -0.00071712403755073
  84    -3.4541481767289e-06
  85    -5.2076037189616e-05
  86    -1.9330705417895e-05
  87    -3.9821800550954e-05
  88    -1.4343993503165e-05
  89    -0.00043997103667835
  90    -1.657910976522e-05
  91    -1.5155403109456e-05
  92    -1.7506370146251e-05
  93    -3.1579923523928e-06
  94    7.1029062864435e-06
 Sym= A
 Ene=               4
 Spin= Alpha
 Occup=    1.00000
   1    -0.00019540944490065
   2    0.00028137541481102
   3    0.0037655379074788
   4    -0.00040488235630349
   5    -0.00077500090944189
   6    -0.00060234861610918
   7    0.00025526016630383
   8    -0.0014429405410025
   9    -0.00076021052393001
  10    7.7926143645223e-06
  11    3.9067718615627e-05
  12    9.9608698328018e-05
  13    -3.442066806075e-05
  14    6.5969027202823e-05
  15    7.4016910365841e-05
  16    9.4152594418621e-05
  17    -0.0016722054517957
  18    0.00012234114172746
  19    7.1191717095352e-06
  20    3.6977299346733e-08
  21    0.00072864333419277
  22    0.0004411013103027
  23    0.00030373547224332
  24    1.6395375340146e-05
  25    -2.8659496229686e-06
  26    5.9232613124317e-05
  27    -4.0474212823262e-05
  28    -3.7165712947824e-05
  29    8.524983677637e-05
  30    -4.2750797576743e-05
  31    -3.152097126932e-05
  32    -6.0883660823664e-05
  33    -1.6442717504456e-05
  34    -6.2065870772669e-05
  35    -0.00012484018890263
  36    0.00037820497051458
  37    2.4448993560896e-05
  38    -3.0958096934415e-05
  39    -1.0685301174327e-05
  40    -4.3173897898779e-05
  41    9.0501715152519e-05
  42    2.8115441091842e-05
  43    1.2122880364269e-05
  44    2.2887360220467e-06
  45    -6.5353524925704e-06
  46    -9.0131854558447e-06
  47    2.582447038954e-07
  48    -6.7751852127766e-06
  49    -5.7898545674823e-06
  50    0.00011853408446236
  51    -1.0532747247426e-05
  52    -1.1382791753535e-05
  53    1.1540597906675e-05
  54    -7.1311170613763e-05
  55    -6.6881518987404e-05
  56    -1.5189294288756e-05
  57    -6.7752016083783e-06
  58    -4.8502742750535e-06
  59    -2.1747388724215e-07
  60    -1.4955345966638e-05
  61    1.1069051478571e-06
  62    9.9981948879872e-05
  63    0.00016679806414781
  64    -0.00071651095803395
  65    -9.4078241977074e-07
  66    -2.4812719564793e-05
  67    5.0005157216593e-05
  68    -5.1317859978017e-05
  69    0.00026696315132907
  70    0.00034922921424067
  71    -2.0229158129234e-05
  72    7.7952764558683e-06
  73    -1.2598784018802e-05
  74    -5.4736046844958e-06
  75    1.4812648676233e-05
  76    -0.00025580771204054
  77    -8.5985668690271e-05
  78    3.7708405410639e-06
  79    0.00014050727545331
  80    8.8641451220212e-05
  81       1.0010220490977
  82    0.00073675110573998
  83    -0.005820466310371
  84    0.0006966789665807
  85    0.0018176550925592
  86    0.0014304608038357
  87    -0.00026652795188774
  88    -0.00040095259406785
  89    -0.00042242650197702
  90    -1.3753269185093e-05
  91    -4.3336324023778e-05
  92    -9.2166012416057e-05
  93    5.9175584855328e-05
  94    -6.1717943726672e-05
 Sym= A
 Ene=               5
 Spin= Alpha
 Occup=    1.00000
   1    7.4014769543887e-05
   2    9.4321193670884e-05
   3    -0.0016717208743334
   4    -0.00012196760229628
   5    2.4363655197396e-06
   6    6.7257356686076e-06
   7    -0.00072833467393995
   8    0.00043636210700945
   9    0.00031072429558929
  10    -7.336046443675e-06
  11    3.3964142319799e-05
  12    4.926239402178e-05
  13    -5.4175911525339e-05
  14    1.543624613799e-05
  15    -0.00019552585337003
  16    0.00028080199002552
  17    0.0037653651771169
  18    0.00040459759215487
  19    -0.00083025877847412
  20    -0.00052178718059348
  21    -0.00025503706144003
  22    -0.0012077981859854
  23    -0.0010960185794467
  24    -3.1700204866408e-05
  25    -4.870790466734e-05
  26    8.2934988278439e-05
  27    -5.7040476010777e-05
  28    -5.940077734069e-05
  29    -0.00025593968180173
  30    -8.5995387325065e-05
  31    -3.7977098955682e-06
  32    0.00013138836014737
  33    0.00010173275910741
  34       1.0010220563789
  35    0.00074046251467512
  36    -0.005816143399615
  37    -0.00069235493397244
  38    0.0019645896233011
  39    0.0012179743870966
  40    0.00026950150210491
  41    -0.00053493594892251
  42    -0.00023282482914733
  43    1.0535360946445e-05
  44    4.3229782193986e-05
  45    -8.2000773972722e-05
  46    7.3183864411687e-05
  47    6.191926050175e-05
  48    9.9990675830904e-05
  49    0.00016677901540349
  50    -0.00071663157367942
  51    9.5723611860882e-07
  52    3.8568025927176e-05
  53    -4.0481388369094e-05
  54    5.132300741405e-05
  55    0.0004195447931492
  56    0.00013137149689056
  57    1.7770964088573e-05
  58    -1.1260119004794e-05
  59    3.3705527901206e-06
  60    1.6473901725305e-05
  61    -1.2395184103119e-05
  62    -6.7700586212834e-06
  63    -5.7970726648974e-06
  64    0.00011847029405863
  65    1.0485496209588e-05
  66    6.9306149780969e-06
  67    -1.4636013529964e-05
  68    7.124499646808e-05
  69    -3.71783160428e-05
  70    -5.763930558841e-05
  71    1.3754818489532e-05
  72    -2.705459510464e-06
  73    8.4132127639165e-06
  74    -3.0978230649583e-06
  75     4.18127041688e-06
  76    8.5106230652472e-05
  77    -4.2909292405594e-05
  78    3.1536422862803e-05
  79    -3.6272349800831e-05
  80    -5.1597284503007e-05
  81    -6.2067075414329e-05
  82    -0.00012480240431489
  83    0.00037828169023695
  84    -2.4427438808184e-05
  85    -2.0578661179848e-05
  86    -2.5420137288446e-05
  87    4.3164059145439e-05
  88    5.741312549944e-05
  89    7.5435459022206e-05
  90    6.6006881853953e-06
  91    5.4305674001211e-07
  92    -8.8564733544559e-06
  93    -1.2209977780334e-05
  94    -2.2332277237621e-06
 Sym= A
 Ene=               6
 Spin= Alpha
 Occup=    1.00000
   1    -0.00095816901103212
   2    -0.015719331840415
   3      -0.0274199516997
   4     0.015018872450835
   5     0.027813410376034
   6      0.02098520291337
   7    0.0088684667256521
   8     0.038330744731288
   9     0.030251849197144
  10     0.020200108853419
  11     0.013958558338249
  12     0.032313318935661
  13    -0.0024743598607151
  14    -0.0098675290991354
  15    -0.0010173601928253
  16    -0.017530004244969
  17     -0.02738478481116
  18     0.016796215929827
  19    1.8085521819412e-05
  20    -0.0068728884474246
  21    -0.0067189640485116
  22    0.00032996101484885
  23    -0.010031614977719
  24    0.00015779563124109
  25    -8.3796021617063e-05
  26    4.8763528773637e-05
  27    -5.0748181502869e-05
  28    -0.00050185540475676
  29    -0.0089654892519327
  30     0.018129792679217
  31    -0.0024213071723609
  32    0.00063012100090959
  33    0.0015044494147345
  34    -0.00076370471485387
  35    0.0014400197967618
  36      0.01094990141362
  37    -0.0050999242952539
  38    0.0050962942020822
  39     0.004768546989232
  40    -0.0069500829189084
  41    0.0057638088918525
  42    0.0049375551359541
  43    -0.00013487502504223
  44    4.1527590180658e-07
  45    0.00015330721810739
  46    -0.00020853485590349
  47    5.4588399152004e-06
  48    0.00069019107208987
  49    0.0034512668529256
  50     0.002745539284777
  51    -0.0041292088272873
  52    -0.0034668807111876
  53    0.0012030553130414
  54    0.00022667316610685
  55    -0.0040727463432278
  56     0.001212004577684
  57    6.6574176455967e-05
  58    0.00017228254577719
  59    3.7414464538437e-06
  60    -0.00045773980013873
  61    -0.00031657211395975
  62    -0.00052687822470908
  63    0.00054636899579814
  64     0.002968747574646
  65      0.29633603246244
  66      0.55328031845711
  67      0.21392847852528
  68      0.20653214308776
  69      0.38298934549652
  70      0.14640033035828
  71    -0.0079193825542341
  72    -0.0043249129781907
  73    -0.010162660968938
  74    -0.00021637521376369
  75    0.0061866921193803
  76     -0.02554426076352
  77    -0.019244571437409
  78    0.00063296040300783
  79    -0.00051182168665343
  80    -0.0015444662374432
  81    -0.0018739669460499
  82     0.013561690712988
  83     0.051511307724466
  84    0.0061760769066985
  85     0.025973320511526
  86     0.038116794729317
  87    0.0064429156399502
  88     0.024034817385076
  89     0.035952628729777
  90    -0.00024880090081751
  91    0.00060838121014263
  92    0.00061207230332542
  93    0.00014462291531427
  94    -0.00038477319139167
 Sym= A
 Ene=               7
 Spin= Alpha
 Occup=    1.00000
   1    0.00077410318120476
   2       0.0260369036243
   3     0.083282531131144
   4     0.048654924354617
   5    -0.0051856431148385
   6    -0.0023332342675177
   7     0.054110832596144
   8     0.014162985834816
   9    0.0049716662305992
  10    -0.00027100821067736
  11    -0.0018386231275304
  12    -0.00057222886894423
  13    0.00091028605474781
  14    -0.0019581992479024
  15    0.0029512799658538
  16    -0.00011464687072453
  17      -0.0392176079732
  18    0.0026540376428745
  19    0.0019132849044426
  20     0.002947231184441
  21     0.047666772187725
  22    -0.019565794951289
  23    0.0080357394942562
  24    -0.023940075935187
  25    -0.010844624672716
  26    -0.017750763152351
  27      0.01149857085842
  28     -0.02720372198621
  29    -0.050476861676758
  30    -0.048580346673198
  31    -0.0020453332795594
  32    0.0031502346113715
  33    0.00055669552790226
  34    0.00089244680129434
  35    0.0077904219731926
  36    -0.00086988973385722
  37      0.55071596761266
  38    -0.027005408387473
  39       0.3809214539644
  40       0.3802656234985
  41    -0.021227789493899
  42      0.26208710647236
  43    0.0069799436190133
  44    0.0031802134927369
  45    0.0061381050494642
  46    -0.0031434755432688
  47    0.0099496573954188
  48    -0.0008881210134092
  49    -0.00027728634549528
  50     0.011035276489156
  51    -0.003851195797165
  52    -0.0023068107599218
  53    -0.0015103441625963
  54    -0.0076566056748779
  55    -0.001829529295533
  56    0.0014081216179389
  57    -0.00053268239902113
  58    -0.00026918823384955
  59    -0.00034353714555601
  60    0.00033839168545448
  61    -0.000349177510267
  62    0.00030215880853679
  63    -0.00077540619572835
  64    -0.0051576360898385
  65    -0.0047563076170184
  66    -0.000451834871201
  67    0.0040405093146134
  68    -0.009288190411143
  69    -0.0033163786829999
  70    0.0041242105844966
  71    -0.00028266103122104
  72    -0.00064515591230968
  73    0.00028496693998129
  74    0.00020653366904935
  75    7.6708888366919e-05
  76      -0.0111209036328
  77    -0.013554845285167
  78    0.0024406425241328
  79    0.00038131458970515
  80    -0.0012829350857883
  81    0.00098001653027812
  82    0.0069992975706406
  83    0.0070185050313928
  84     0.012640487412069
  85    0.00029604914068234
  86    -0.0018993993513283
  87    0.00038334219687942
  88    0.0020213859096681
  89    0.0022986110470519
  90    0.00083978388604967
  91    0.00091292872388438
  92    0.00038081327069696
  93    -0.0014439335696648
  94    0.0011061908878298
 Sym= A
 Ene=               8
 Spin= Alpha
 Occup=    1.00000
   1    0.0016316246099837
   2     0.034625819325127
   3     0.085684731194981
   4     0.043111037547663
   5    0.0088876061469211
   6    -0.0037540312608822
   7     0.022086848875297
   8    -0.0054175085969534
   9     0.011983352739946
  10    -0.00084626201043638
  11    -0.0014059500959433
  12    0.00088894426017555
  13    0.0013483722626107
  14    0.00057282058682044
  15    0.0029942117269375
  16    0.0038120256611853
  17    -0.013593508770003
  18    0.0008785041633141
  19    0.00063734302572709
  20    -0.00093521917651804
  21     0.034358205161916
  22     0.015473525784753
  23    0.0072479901661738
  24    -0.022717132475823
  25    -0.010684020282997
  26     0.016762492211936
  27     0.012419049216416
  28     0.026464613627933
  29    -0.050881498535557
  30    -0.048826274230911
  31    -0.0016370329650077
  32    -0.0028495781813277
  33    0.00097304520428144