[Molden Format]
made by pyscf v[2.0.1]
[Atoms] (AU)
C   1   6     1.44113684482775     0.00215300503591     0.00000000000000
C   2   6    -1.44113684482775    -0.00215300503591     0.00000000000000
F   3   9     2.26450633941068     1.26182573931920     2.08560970980069
F   4   9     2.26450633941068     1.26182573931920    -2.08560970980069
F   5   9    -2.26450633941068    -1.26182573931920     2.08560970980069
F   6   9    -2.26450633941068    -1.26182573931920    -2.08560970980069
H   7   1     2.21806130362149    -1.93238728803571     0.00000000000000
H   8   1    -2.21806130362149     1.93238728803571     0.00000000000000
[GTO]
1 0
 s    8 1.00
                  6665  0.00069158396281299
                  1000  0.0053257961529341
                   228   0.027060721042034
                 64.71    0.10165684614077
                 21.06     0.2745748236174
                 7.495    0.44829431892377
                 2.797    0.28490261071525
                0.5215   0.015194859206082
 s    8 1.00
                  6665  -0.00029326965268655
                  1000  -0.0023180354739745
                   228  -0.011499786038565
                 64.71  -0.046826727009787
                 21.06   -0.12846616875047
                 7.495   -0.30126627246289
                 2.797   -0.25563070233011
                0.5215      1.093793361012
 s    1 1.00
                0.1596                   1
 p    3 1.00
                 9.439   0.056979251590039
                 2.002    0.31320721150073
                0.5456    0.76037674173753
 p    1 1.00
                0.1517                   1
 d    1 1.00
                  0.55                   1

2 0
 s    8 1.00
                  6665  0.00069158396281299
                  1000  0.0053257961529341
                   228   0.027060721042034
                 64.71    0.10165684614077
                 21.06     0.2745748236174
                 7.495    0.44829431892377
                 2.797    0.28490261071525
                0.5215   0.015194859206082
 s    8 1.00
                  6665  -0.00029326965268655
                  1000  -0.0023180354739745
                   228  -0.011499786038565
                 64.71  -0.046826727009787
                 21.06   -0.12846616875047
                 7.495   -0.30126627246289
                 2.797   -0.25563070233011
                0.5215      1.093793361012
 s    1 1.00
                0.1596                   1
 p    3 1.00
                 9.439   0.056979251590039
                 2.002    0.31320721150073
                0.5456    0.76037674173753
 p    1 1.00
                0.1517                   1
 d    1 1.00
                  0.55                   1

3 0
 s    8 1.00
                 14710  0.00072067370873197
                  2207  0.0055504869689163
                 502.8   0.028254207662589
                 142.6    0.10639582836653
                 46.47    0.28668420124307
                  16.7    0.44843796582416
                 6.356    0.26464118141135
                 1.316   0.015326060993048
 s    8 1.00
                 14710  -0.00032119389049893
                  2207  -0.0025461915683188
                 502.8  -0.012643359507821
                 142.6   -0.05195749170489
                 46.47   -0.14344713812646
                  16.7   -0.33243762329603
                 6.356   -0.21865906750347
                 1.316     1.0955904138622
 s    1 1.00
                0.3897                   1
 p    3 1.00
                 22.67   0.064834021493887
                 4.977    0.34053535983101
                 1.347    0.73464640679382
 p    1 1.00
                0.3471                   1
 d    1 1.00
                  1.64                   1

4 0
 s    8 1.00
                 14710  0.00072067370873197
                  2207  0.0055504869689163
                 502.8   0.028254207662589
                 142.6    0.10639582836653
                 46.47    0.28668420124307
                  16.7    0.44843796582416
                 6.356    0.26464118141135
                 1.316   0.015326060993048
 s    8 1.00
                 14710  -0.00032119389049893
                  2207  -0.0025461915683188
                 502.8  -0.012643359507821
                 142.6   -0.05195749170489
                 46.47   -0.14344713812646
                  16.7   -0.33243762329603
                 6.356   -0.21865906750347
                 1.316     1.0955904138622
 s    1 1.00
                0.3897                   1
 p    3 1.00
                 22.67   0.064834021493887
                 4.977    0.34053535983101
                 1.347    0.73464640679382
 p    1 1.00
                0.3471                   1
 d    1 1.00
                  1.64                   1

5 0
 s    8 1.00
                 14710  0.00072067370873197
                  2207  0.0055504869689163
                 502.8   0.028254207662589
                 142.6    0.10639582836653
                 46.47    0.28668420124307
                  16.7    0.44843796582416
                 6.356    0.26464118141135
                 1.316   0.015326060993048
 s    8 1.00
                 14710  -0.00032119389049893
                  2207  -0.0025461915683188
                 502.8  -0.012643359507821
                 142.6   -0.05195749170489
                 46.47   -0.14344713812646
                  16.7   -0.33243762329603
                 6.356   -0.21865906750347
                 1.316     1.0955904138622
 s    1 1.00
                0.3897                   1
 p    3 1.00
                 22.67   0.064834021493887
                 4.977    0.34053535983101
                 1.347    0.73464640679382
 p    1 1.00
                0.3471                   1
 d    1 1.00
                  1.64                   1

6 0
 s    8 1.00
                 14710  0.00072067370873197
                  2207  0.0055504869689163
                 502.8   0.028254207662589
                 142.6    0.10639582836653
                 46.47    0.28668420124307
                  16.7    0.44843796582416
                 6.356    0.26464118141135
                 1.316   0.015326060993048
 s    8 1.00
                 14710  -0.00032119389049893
                  2207  -0.0025461915683188
                 502.8  -0.012643359507821
                 142.6   -0.05195749170489
                 46.47   -0.14344713812646
                  16.7   -0.33243762329603
                 6.356   -0.21865906750347
                 1.316     1.0955904138622
 s    1 1.00
                0.3897                   1
 p    3 1.00
                 22.67   0.064834021493887
                 4.977    0.34053535983101
                 1.347    0.73464640679382
 p    1 1.00
                0.3471                   1
 d    1 1.00
                  1.64                   1

7 0
 s    3 1.00
                 13.01   0.033498726389998
                 1.962    0.23480080117413
                0.4446     0.8136829578829
 s    1 1.00
                 0.122                   1
 p    1 1.00
                 0.727                   1

8 0
 s    3 1.00
                 13.01   0.033498726389998
                 1.962    0.23480080117413
                0.4446     0.8136829578829
 s    1 1.00
                 0.122                   1
 p    1 1.00
                 0.727                   1

[5d]
[7f]
[9g]

[MO]
 Sym= A
 Ene=               0
 Spin= Alpha
 Occup=    1.00000
   1    -0.00021263878741444
   2    5.8118301262923e-05
   3    0.0031543694994075
   4    -0.00047169088777948
   5    -6.9844810830568e-06
   6    2.1032308285039e-09
   7    -0.0015511161808293
   8    0.00040313702101542
   9    -3.7003306767522e-10
  10    -4.2114021042866e-05
  11    1.1506719335619e-10
  12    5.5810639922311e-10
  13    6.8475611081203e-05
  14    -9.0008696057215e-05
  15       1.0018139101876
  16    0.0039471017590251
  17    -0.0073103390642333
  18    -0.0005101800197124
  19    -0.0010692526556479
  20    1.3311611514011e-08
  21    -0.0015610927261115
  22    -0.00062257594258369
  23    1.1260171843031e-09
  24    0.00029193945888688
  25    -1.4632058754761e-09
  26    -2.5555986336871e-09
  27    -8.4891580538003e-05
  28    8.7452746834494e-05
  29    -3.4053988611023e-06
  30    -9.6918621057876e-07
  31    -0.00017449843217591
  32    2.7710533887157e-06
  33    1.0458257434501e-05
  34    -6.7971886275616e-06
  35    -6.1719355495471e-05
  36    -3.2600357032297e-05
  37    9.2718197129699e-05
  38    -1.0871232222501e-05
  39    7.4371681139902e-06
  40    1.2084070731035e-05
  41    2.6063244166907e-05
  42    1.031925645391e-05
  43    -3.3948812439187e-06
  44    -9.6558198843073e-07
  45    -0.0001744942768638
  46    2.762533384452e-06
  47    1.0453613358439e-05
  48    6.7823675568545e-06
  49    -6.172535228784e-05
  50    -3.2603623087499e-05
  51    -9.2728636772729e-05
  52    -1.0871563720901e-05
  53    -7.437177974611e-06
  54    -1.2083941742015e-05
  55    2.6063265839038e-05
  56    1.0319364559978e-05
  57    0.00014102583743859
  58    0.00062733653864043
  59    -6.1999966063991e-06
  60    8.5188316859732e-05
  61    0.00015889697116507
  62    -0.0003299019196685
  63    -9.6775139786679e-05
  64    -0.00035257363786112
  65    0.00067504531895799
  66    -0.00010115450439897
  67    7.7192307930124e-05
  68    0.00012479915630071
  69    9.916277799897e-06
  70    -3.3957636583645e-05
  71    0.0001410299233089
  72    0.00062732031454907
  73    -6.2149619225612e-06
  74    8.5182634822569e-05
  75    0.00015888581605075
  76    0.00032987783106824
  77    -9.6778394171684e-05
  78    -0.00035258042983608
  79    -0.00067506091709186
  80    -0.00010115492915602
  81    -7.7192827892688e-05
  82    -0.00012479996576124
  83    9.9164441601825e-06
  84    -3.3957970637852e-05
  85    -6.9771314715318e-05
  86    0.00042363694054503
  87    -9.0010242219019e-05
  88    2.1145928200879e-05
  89    1.3908816037379e-10
  90    0.00094267415856714
  91    0.0014564842590242
  92    0.00021494347480415
  93    -7.192632769126e-05
  94    4.0360027636239e-10
 Sym= A
 Ene=               1
 Spin= Alpha
 Occup=    1.00000
   1       1.0018139103002
   2    0.0039470992244266
   3    -0.0073103410716191
   4    0.00051016244617361
   5    0.0010692679918068
   6    1.145401874025e-08
   7    0.0015610853916648
   8    0.00062258091398173
   9    7.2010355218299e-10
  10    0.00029194064726584
  11    4.9251136245667e-10
  12    2.5855805586009e-09
  13    -8.4891263543981e-05
  14    8.7452302293895e-05
  15    -0.00021263868825169
  16    5.8124378298713e-05
  17    0.0031543723475253
  18    0.00047169949632796
  19    6.9846664233819e-06
  20    1.7732145519755e-09
  21    0.0015511179746161
  22    -0.0004031368585116
  23    -2.9841833906062e-11
  24    -4.21149244302e-05
  25    -1.6497712386062e-10
  26    -6.9928439242375e-10
  27    6.8476176992002e-05
  28    -9.000792740997e-05
  29    0.00014102479047313
  30    0.00062733917560893
  31    -6.1961937927227e-06
  32    -8.5215968748534e-05
  33    -0.00015889100092747
  34    -0.00032989366180952
  35    9.6756853838685e-05
  36    0.00035257689794921
  37    0.00067505085074947
  38    -0.00010115471666589
  39    -7.719169400594e-05
  40    -0.00012479950574674
  41    9.9167404906454e-06
  42    -3.3957350191459e-05
  43    0.00014106346342936
  44    0.00062732156983873
  45    -6.213792403488e-06
  46    -8.5193650750414e-05
  47    -0.00015888954258053
  48    0.00032987726899899
  49    9.6771897016187e-05
  50    0.00035257716752742
  51    -0.00067506135068554
  52    -0.00010115498813085
  53    7.7192404877655e-05
  54    0.00012480004988146
  55    9.9166734462419e-06
  56    -3.395776563894e-05
  57    -3.4049734161076e-06
  58    -9.6990144494076e-07
  59    -0.00017449963833942
  60    -2.7742773497375e-06
  61    -1.0466757511144e-05
  62    -6.8031606993306e-06
  63    6.1716767997944e-05
  64    3.2594280907504e-05
  65    9.2714173005135e-05
  66    -1.0871067627844e-05
  67    -7.4372357499976e-06
  68    -1.2083980269592e-05
  69    2.6063354920815e-05
  70    1.0319244719834e-05
  71    -3.4045910053844e-06
  72    -9.6529012227369e-07
  73    -0.00017449396703487
  74    -2.765195654556e-06
  75    -1.0455406667906e-05
  76    6.7833408453418e-06
  77    6.1723085213086e-05
  78    3.2602336354757e-05
  79    -9.2728037911444e-05
  80    -1.0871518831024e-05
  81    7.437223836259e-06
  82    1.2083928656326e-05
  83    2.6063293623035e-05
  84    1.0319408666673e-05
  85    0.00094265736563426
  86    0.0014564801074305
  87    -0.00021494302361511
  88    7.192507835181e-05
  89    4.1153843626097e-10
  90    -6.9771645420666e-05
  91    0.0004236352915127
  92    9.0010505189061e-05
  93    -2.1146021155963e-05
  94    1.3840963157658e-10
 Sym= A
 Ene=               2
 Spin= Alpha
 Occup=    1.00000
   1    -0.00018849858324274
   2    0.0002719630540843
   3    0.0033703546444042
   4    0.00039099012424067
   5    0.00050587166522886
   6    0.00081063276333192
   7    -0.00012775509636343
   8    0.0010817594938967
   9    0.0012366115889315
  10    9.4847183039424e-05
  11    0.00010042086725116
  12    0.00013221212626265
  13    -1.2331689754807e-06
  14    7.1954000249254e-05
  15    4.917862807081e-05
  16    5.8271530277403e-05
  17    -0.0011695695598689
  18    -0.00013129678309062
  19    1.7254470611112e-05
  20    2.1646678339658e-05
  21    -0.00064155398414179
  22    -0.00023959219581925
  23    -0.00017725765129077
  24    5.5414578982324e-05
  25    -1.3580015898549e-05
  26    2.0963402320764e-05
  27    -5.9274747118074e-05
  28    -2.5863176279475e-05
  29       1.0010075847124
  30    0.00058427126940464
  31    -0.0058669909669069
  32    -0.0007232439282801
  33    -0.0012121100866124
  34    -0.0019274543143443
  35    0.00027450701170293
  36    0.00021279859638374
  37    0.00052463779095982
  38    -7.7308181413874e-05
  39    -6.8555423539057e-05
  40    -9.6546305545089e-05
  41    2.3323174962149e-05
  42    -4.6658564203527e-05
  43    8.5302635743989e-05
  44    0.00014118305216808
  45    -0.00058907424467311
  46    4.3046429166733e-06
  47    4.1586003223336e-05
  48    -2.7712516741237e-05
  49    1.8590295584224e-05
  50    -0.00014847885803081
  51    -0.00040046669959511
  52    -2.3477512812247e-05
  53    8.8990966585056e-06
  54    -8.3692866955304e-07
  55    -7.2334770971668e-06
  56    1.0988626173059e-05
  57    2.5877620591801e-05
  58    5.1377006341514e-05
  59    -4.8052461432481e-05
  60    1.9540011260321e-05
  61    -1.4736681695277e-05
  62    -2.3124935108559e-06
  63    -6.9663664828121e-05
  64    2.5524814820241e-05
  65    6.7053754016598e-08
  66    8.5825453125753e-06
  67    7.0359204807441e-07
  68    2.5665066128622e-06
  69    -1.5005060390705e-05
  70    -1.0115021349992e-05
  71    -2.3686179462395e-05
  72    -4.1892842693434e-05
  73    0.00010367488073289
  74    -2.2794595936364e-05
  75    1.2257870065057e-07
  76    1.1530406848979e-05
  77    0.0001778089843955
  78    2.7758294363908e-05
  79    1.0472894441676e-05
  80    -2.5534987446765e-06
  81    -1.2387024663259e-06
  82    3.7665059288804e-07
  83    9.8969595745959e-07
  84    -2.3035540098276e-06
  85    -0.00020701857061619
  86    -6.0542959744524e-05
  87    -1.5230275066177e-05
  88    -8.9018124939636e-05
  89    -0.00013871109191519
  90    8.2957685300962e-05
  91    -8.186309607484e-05
  92    -5.3905167265089e-05
  93    8.9974403613106e-06
  94    -8.6967361845352e-06
 Sym= A
 Ene=               3
 Spin= Alpha
 Occup=    1.00000
   1    4.8807597374838e-05
   2    5.701550658949e-05
   3    -0.0011679510367618
   4    0.00013192047519574
   5    -1.5553937111897e-05
   6    -1.9868878030054e-05
   7    0.00063851736797596
   8    0.00024358597530778
   9    0.00017619407203553
  10    5.5704942604632e-05
  11    -1.482599302576e-05
  12    2.0860879646667e-05
  13    -5.9654100632077e-05
  14    -2.6729932745158e-05
  15    -0.00019166082885955
  16    0.00024734872489129
  17    0.0033618967352861
  18    -0.00037990600332904
  19    -0.0004884048155837
  20    -0.00078337881699218
  21    0.00012764105563182
  22    -0.0010836844027641
  23    -0.0012341059408579
  24    9.4432054732372e-05
  25    9.8762744785873e-05
  26    0.00013059057616333
  27    -1.6736961408991e-06
  28    7.1110406972317e-05
  29    -2.3796473329019e-05
  30    -4.2272554568904e-05
  31    0.00010315270848933
  32    2.3569517400703e-05
  33    -9.589275196993e-08
  34    -1.1173155844971e-05
  35    -0.00017710319569555
  36    -2.836497220689e-05
  37    -1.0101110953864e-05
  38    -2.5550457708314e-06
  39    -1.2049875690259e-06
  40    4.2165446969979e-07
  41    1.0157358282576e-06
  42    -2.2879506865906e-06
  43    2.6062739343314e-05
  44    5.1604099601703e-05
  45    -4.9893103459808e-05
  46    -1.9216291440652e-05
  47    1.4681423401904e-05
  48    2.6491068824525e-06
  49    7.0259120295026e-05
  50    -2.5854698738421e-05
  51    -6.3227205838934e-07
  52    8.588201263542e-06
  53    7.177377394331e-07
  54    2.6117172432116e-06
  55    -1.4997760035127e-05
  56    -1.0143628918925e-05
  57    8.5477450832873e-05
  58     0.000142248199054
  59    -0.00058885397098079
  60    -4.0242677885293e-06
  61    -4.0973238221823e-05
  62    2.5338606441473e-05
  63    -1.8554307048513e-05
  64    0.0001487703009249
  65    0.00039840551529714
  66    -2.3974719336019e-05
  67    8.9142207328749e-06
  68    -7.9128833626333e-07
  69    -7.3125860682324e-06
  70    1.1124651643061e-05
  71       1.0010076362439
  72    0.00072519344525724
  73    -0.0057006955751014
  74    0.00070837643950177
  75    0.0011548557354983
  76    0.0018408282598555
  77    -0.0002838004833138
  78    -0.00025138673527407
  79    -0.00058307623605815
  80    -7.8772515984264e-05
  81    -6.9568093103615e-05
  82    -9.8614239594654e-05
  83    2.3853334083692e-05
  84    -4.7333111025927e-05
  85    8.249958542676e-05
  86    -7.7833514618124e-05
  87    5.3908949235833e-05
  88    -8.9721880306816e-06
  89    8.8499549652655e-06
  90    -0.00020565023431456
  91    -5.3738184568993e-05
  92    1.5830989932213e-05
  93    8.9656269384203e-05
  94    0.00013964273696627
 Sym= A
 Ene=               4
 Spin= Alpha
 Occup=    1.00000
   1    -0.00019338728235333
   2    0.00023368811031779
   3    0.0033567440347681
   4    0.00037369565664141
   5    0.00047866875618827
   6    -0.00076757383660934
   7    -0.00012620241716107
   8    0.0010847186958159
   9    -0.0012330163916424
  10    9.3892369627608e-05
  11    -9.8782583340874e-05
  12    -0.00012924066521293
  13    -1.1094786094808e-06
  14    7.1115403723746e-05
  15    4.8689396625544e-05
  16    5.766025289069e-05
  17    -0.0011642161769379
  18    -0.00013049190897183
  19    1.4802688769961e-05
  20    -1.8796677349315e-05
  21    -0.00063572244891754
  22    -0.00024591394653454
  23    0.00017660961719598
  24    5.5797889504546e-05
  25    1.5529972617847e-05
  26    -2.071222935615e-05
  27    -5.9821617130972e-05
  28    -2.7211527558536e-05
  29    8.5561849971674e-05
  30    0.00014269006525075
  31    -0.00058890620458048
  32    4.013240667322e-06
  33    4.0737581561617e-05
  34    2.4333391625295e-05
  35    1.8543494465264e-05
  36    -0.00014887688733102
  37    0.00039756023906373
  38    -2.4255495263333e-05
  39    -8.9389415782184e-06
  40    7.723861195035e-07
  41    -7.339690678547e-06
  42    1.1215179934954e-05
  43       1.0010076772692
  44    0.00080555617325374
  45    -0.0056063645101408
  46    -0.00067761603076971
  47    -0.0011310491267402
  48    0.0017949699756228
  49    0.00030462747865613
  50    0.00026730559869711
  51    -0.00061404746192054
  52    -7.9485723242488e-05
  53    7.0494762990073e-05
  54    9.9611745088826e-05
  55    2.3911403849218e-05
  56    -4.7878416890456e-05
  57    -2.3805371223709e-05
  58    -4.2559060671159e-05
  59    0.0001020306365844
  60    -2.4359419710718e-05
  61    -1.6256294730596e-07
  62    -1.0646955748239e-05
  63    0.00017635140546616
  64    2.8384331883217e-05
  65    -9.5242957469945e-06
  66    -2.5706591393742e-06
  67    1.1658608133772e-06
  68    -4.4082237321793e-07
  69    1.0447359121057e-06
  70    -2.2636852212592e-06
  71    2.6163405004085e-05
  72    5.1753982251239e-05
  73    -5.0770520292064e-05
  74    1.9113956926636e-05
  75    -1.4534158366954e-05
  76    2.7403036604163e-06
  77    -7.0691114066588e-05
  78    2.6162865450388e-05
  79    -1.0431759680148e-06
  80    8.5912581502428e-06
  81    -6.9776828910788e-07
  82    -2.626696026729e-06
  83    -1.4994894242903e-05
  84    -1.0158261405788e-05
  85    -0.00020633217782562
  86    -5.1309021105803e-05
  87    -1.6232439243347e-05
  88    -9.0041875943082e-05
  89    0.00014025162318495
  90    8.2497942403054e-05
  91    -7.6318791434257e-05
  92    -5.3931749098906e-05
  93    8.9478611075528e-06
  94    8.9169706006459e-06
 Sym= A
 Ene=               5
 Spin= Alpha
 Occup=    1.00000
   1    4.9166486674545e-05
   2    5.8378301762705e-05
   3    -0.0011690042159382
   4    0.00013107576119906
   5    -1.7147736084708e-05
   6    2.1496149341778e-05
   7    0.00064114457284112
   8    0.00023992170441405
   9    -0.00017733625106651
  10    5.5426377965355e-05
  11    1.3674902075913e-05
  12    -2.0940686953976e-05
  13    -5.9296979786255e-05
  14    -2.5926676868323e-05
  15    -0.00018873019880337
  16    0.0002701247912277
  17     0.003369631689968
  18    -0.00039018467310045
  19    -0.00050459252787483
  20    0.00080849822210277
  21    0.00012751128069784
  22    -0.0010819234177349
  23    0.0012364506422676
  24    9.4755674145963e-05
  25    -0.00010045733576688
  26    -0.00013203993237326
  27    -1.1472491912328e-06
  28    7.1976622823313e-05
  29    2.5891597046875e-05
  30    5.1398850627776e-05
  31    -4.816898437623e-05
  32    -1.9527041484668e-05
  33    1.4708072273396e-05
  34    -2.3253874777353e-06
  35    6.9725762654024e-05
  36    -2.5574124690826e-05
  37    1.2198728773466e-07
  38    8.5832870021612e-06
  39    -7.0032049996835e-07
  40    -2.5681882393151e-06
  41    -1.5005031772209e-05
  42    -1.0117313641019e-05
  43    -2.3686130219965e-05
  44    -4.1935296700277e-05
  45    0.00010350097265138
  46    2.2905591689556e-05
  47    -8.6782590289554e-08
  48    1.1457167568264e-05
  49    -0.000177701865968
  50    -2.7757597566398e-05
  51    1.0389154624321e-05
  52    -2.555878855037e-06
  53    1.2328036556593e-06
  54    -3.7920743082128e-07
  55    9.9404472714746e-07
  56    -2.2998379841101e-06
  57       1.0010075992029
  58    0.00059543624000469
  59    -0.0058539098518721
  60    0.00071842322572625
  61    0.0012087708986262
  62    -0.0019215534893152
  63    -0.00027778317017059
  64    -0.00021503647654557
  65    0.00052862395886167
  66    -7.7393625816686e-05
  67    6.8688670524637e-05
  68    9.6678685256245e-05
  69    2.332740818964e-05
  70    -4.6739803782768e-05
  71    8.5313721197639e-05
  72    0.00014122461918083
  73    -0.00058911463217224
  74    -4.281464485098e-06
  75    -4.1555291747631e-05
  76    -2.7640574766462e-05
  77    -1.8570381886922e-05
  78    0.00014849353117957
  79    -0.00040040326529886
  80    -2.3515732472368e-05
  81    -8.902943022769e-06
  82    8.3389309190712e-07
  83    -7.2368045284774e-06
  84    1.1001627108965e-05
  85    8.2955724337848e-05
  86    -8.1666100485568e-05
  87    5.3909079551578e-05
  88    -8.9939666377069e-06
  89    -8.7050778939015e-06
  90    -0.00020713672679334
  91    -6.0229906610796e-05
  92    1.528515581839e-05
  93    8.907062739345e-05
  94    -0.00013879392514063
 Sym= A
 Ene=               6
 Spin= Alpha
 Occup=    1.00000
   1    -0.0020148778978723
   2    -0.031734945877558
   3    -0.076504259714234
   4     0.041939671001334
   5    0.0069458446536954
   6    0.0017577709497024
   7     0.024734662701097
   8    0.0039779865578153
   9      0.02858052415689
  10    0.0016035141375702
  11    0.00020378735617941
  12    -0.0020806361204221
  13    -0.0010942556265254
  14    -0.00046863297342743
  15    -0.0025568303494235
  16    -0.0020569606894526
  17     0.015251909448953
  18    -0.00051122787931635
  19    0.00025150442571403
  20    -0.0013498595915704
  21     0.033833088861351
  22    -0.011449619103222
  23    -0.021355302510369
  24    -0.0023260128007983
  25     0.024578117306221
  26    -0.016582291933637
  27     -0.02494567983397
  28    -0.0095619297779108
  29    0.00053153440505639
  30    0.00067980199233276
  31    -0.0052186442815696
  32    -0.00051088124527714
  33    0.0020377810961364
  34    -0.0023325018582445
  35    -0.003219706869088
  36    0.0025267657440992
  37    -0.0026481517190295
  38    8.9112149294428e-05
  39    -0.00057272759676701
  40    -0.00022641275632843
  41    -4.1647183598269e-05
  42    -9.8088232278371e-05
  43    -0.0013915676156864
  44    0.0013870509206488
  45     0.020890958298167
  46    -0.0075276388911079
  47    -0.0068630806429779
  48    0.0073646207641699
  49    -0.0072010772193022
  50    -0.0093327590708058
  51    0.0088211130216579
  52    0.00035012130225379
  53    0.00046172435795672
  54    -0.00016361398998024
  55    -0.00032849656296517
  56    -0.00039765091230738
  57    -0.0014874498410277
  58    -0.0027331257229957
  59    0.0097106026324126
  60      0.53878446617263
  61     -0.39503024468518
  62    -0.027334742615654
  63      0.37537859780947
  64     -0.27265536327764
  65      -0.0209987041778
  66    0.00045707191693825
  67    -0.0092991226329902
  68    0.0062332408038272
  69    0.0077301262838152
  70     0.002374047565379
  71    0.00087886137014597
  72    0.00033391153815661
  73    -0.010642456759068
  74    -0.0028210896711542
  75    0.0011589391910485
  76    -0.002371724717732
  77    -0.005432457700696
  78    -0.00054500593696835
  79    -0.0024135035060104
  80    2.7399236522054e-05
  81    0.0002860756300401
  82    -0.00027685951081952
  83    -0.00065887568337193
  84    -0.000232416875913
  85    -0.0065265473535736
  86     0.024821048546123
  87    -0.00090084046271432
  88    -8.7405740639324e-05
  89    -0.00040998981664191
  90     0.050114261184128
  91      0.04658403020485
  92    -0.0017627305901313
  93    -0.00058293064978321
  94    0.0025744366091583
 Sym= A
 Ene=               7
 Spin= Alpha
 Occup=    1.00000
   1    -0.0020145778148708
   2    -0.031731760731989
   3    -0.076499619846372
   4     0.041934721663649
   5    0.0069475119473096
   6    -0.0017562824924386
   7      0.02472893525657
   8    0.0039840872057062
   9    -0.028580033774407
  10    0.0016035137841045
  11    -0.00020491782386026
  12    0.0020802308504778
  13    -0.0010945179801362
  14    -0.00046943787243432
  15    -0.0025588665531168
  16    -0.0020748938675924
  17     0.015247985443616
  18    -0.0005038762712522
  19    0.00026410111980589
  20    0.0013800602868814
  21     0.033829312131265
  22     -0.01145579768506
  23     0.021363448030615
  24    -0.0023326717335206
  25     -0.02457743760649
  26     0.016582105371447
  27    -0.024946197828515
  28    -0.0095602650498719
  29    -0.0013916471772921
  30    0.0013861565548126
  31      0.02088821400406
  32    -0.0075256372746447
  33    -0.0068624499888671
  34    -0.0073630190955855
  35    -0.0071989370010809
  36    -0.0093327327822298
  37    -0.0088196554178229
  38    0.00035006990495949
  39    -0.00046163444888227
  40    0.00016362120776214
  41    -0.00032842151421303
  42    -0.00039761107844233
  43    0.00053181286983212
  44    0.00068048550398142
  45    -0.0052201869799332
  46    -0.00051202439915691
  47    0.0020369545156388
  48    0.0023325779339285
  49    -0.0032193948446318
  50    0.0025258900164908
  51    0.0026478207915738
  52    8.9165769678295e-05
  53    0.00057260563963079
  54    0.0002264018107627
  55    -4.1687028085165e-05
  56    -9.8146842943963e-05
  57    0.00087936641566325
  58    0.00033120395525798
  59    -0.010652182143343
  60    -0.0028225666241512
  61    0.0011577854061599
  62    0.0023754722459682
  63    -0.0054339845616694
  64    -0.00054641737547985
  65    0.0024175728576088
  66    2.7009905596851e-05
  67    -0.00028598383760557
  68    0.00027693826547911
  69    -0.00065898734202388
  70    -0.00023220386670007
  71    -0.0015180063195335
  72    -0.0026323667302713
  73    0.0098296657036783
  74      0.53870156458582
  75     -0.39514369873357
  76     0.027331024358708
  77      0.37532180061481
  78     -0.27273298666777
  79     0.020997289251083
  80    0.00045789901171955
  81    0.0092975194917602
  82    -0.0062354699153804
  83     0.007730747820189
  84    0.0023721435588372
  85    -0.0065263195387749
  86     0.024824980784011
  87    -0.00090096947215673
  88    -8.7306599994618e-05
  89    0.00041001848023153
  90     0.050118446956311
  91      0.04659111427251
  92    -0.0017622686071591
  93    -0.00058223721634852
  94    -0.0025737104718889
 Sym= A
 Ene=               8
 Spin= Alpha
 Occup=    1.00000
   1    0.0025590980750075
   2    0.0020756046612314
   3    -0.015249282551355
   4    -0.00050533466768206
   5    0.00026299601721038
   6    -0.0013910318686373
   7     0.033824997498059
   8    -0.011462601777689
   9    -0.021371394782422
  10    0.0023399751895748
  11    -0.024575193956188
  12     0.016584472988351
  13     0.024947217654068
  14    0.0095574245766302
  15     0.002014010785248
  16     0.031728060404435
  17     0.076496718981619
  18     0.041929868899383
  19    0.0069484989876442
  20    0.0017559789174109
  21     0.024724823559864
  22    0.0039884711750956
  23     0.028579317619411
  24    -0.0016033150588457
  25    -0.00020516854406463
  26    0.0020798968257885
  27    0.0010945311964269
  28    0.00046960496998162
  29    -0.000879713652978
  30    -0.00032857433246451
  31     0.010662203891936
  32    -0.0028238933530362