[Molden Format]
made by pyscf v[2.0.1]
[Atoms] (AU)
C   1   6    -0.45807150232070     1.35076111603011     0.00000000000000
C   2   6     0.45807150232070    -1.35076111603011     0.00000000000000
H   3   1    -2.50712610562621     1.46681486651802     0.00000000000000
H   4   1     2.50712610562621    -1.46681486651802     0.00000000000000
F   5   9     0.45807150232070     2.51339243745527     2.04292433175743
F   6   9     0.45807150232070     2.51339243745527    -2.04292433175743
F   7   9    -0.45807150232070    -2.51339243745527     2.04292433175743
F   8   9    -0.45807150232070    -2.51339243745527    -2.04292433175743
[GTO]
1 0
 s    8 1.00
                  6665  0.00069158396281299
                  1000  0.0053257961529341
                   228   0.027060721042034
                 64.71    0.10165684614077
                 21.06     0.2745748236174
                 7.495    0.44829431892377
                 2.797    0.28490261071525
                0.5215   0.015194859206082
 s    8 1.00
                  6665  -0.00029326965268655
                  1000  -0.0023180354739745
                   228  -0.011499786038565
                 64.71  -0.046826727009787
                 21.06   -0.12846616875047
                 7.495   -0.30126627246289
                 2.797   -0.25563070233011
                0.5215      1.093793361012
 s    1 1.00
                0.1596                   1
 p    3 1.00
                 9.439   0.056979251590039
                 2.002    0.31320721150073
                0.5456    0.76037674173753
 p    1 1.00
                0.1517                   1
 d    1 1.00
                  0.55                   1

2 0
 s    8 1.00
                  6665  0.00069158396281299
                  1000  0.0053257961529341
                   228   0.027060721042034
                 64.71    0.10165684614077
                 21.06     0.2745748236174
                 7.495    0.44829431892377
                 2.797    0.28490261071525
                0.5215   0.015194859206082
 s    8 1.00
                  6665  -0.00029326965268655
                  1000  -0.0023180354739745
                   228  -0.011499786038565
                 64.71  -0.046826727009787
                 21.06   -0.12846616875047
                 7.495   -0.30126627246289
                 2.797   -0.25563070233011
                0.5215      1.093793361012
 s    1 1.00
                0.1596                   1
 p    3 1.00
                 9.439   0.056979251590039
                 2.002    0.31320721150073
                0.5456    0.76037674173753
 p    1 1.00
                0.1517                   1
 d    1 1.00
                  0.55                   1

3 0
 s    3 1.00
                 13.01   0.033498726389998
                 1.962    0.23480080117413
                0.4446     0.8136829578829
 s    1 1.00
                 0.122                   1
 p    1 1.00
                 0.727                   1

4 0
 s    3 1.00
                 13.01   0.033498726389998
                 1.962    0.23480080117413
                0.4446     0.8136829578829
 s    1 1.00
                 0.122                   1
 p    1 1.00
                 0.727                   1

5 0
 s    8 1.00
                 14710  0.00072067370873197
                  2207  0.0055504869689163
                 502.8   0.028254207662589
                 142.6    0.10639582836653
                 46.47    0.28668420124307
                  16.7    0.44843796582416
                 6.356    0.26464118141135
                 1.316   0.015326060993048
 s    8 1.00
                 14710  -0.00032119389049893
                  2207  -0.0025461915683188
                 502.8  -0.012643359507821
                 142.6   -0.05195749170489
                 46.47   -0.14344713812646
                  16.7   -0.33243762329603
                 6.356   -0.21865906750347
                 1.316     1.0955904138622
 s    1 1.00
                0.3897                   1
 p    3 1.00
                 22.67   0.064834021493887
                 4.977    0.34053535983101
                 1.347    0.73464640679382
 p    1 1.00
                0.3471                   1
 d    1 1.00
                  1.64                   1

6 0
 s    8 1.00
                 14710  0.00072067370873197
                  2207  0.0055504869689163
                 502.8   0.028254207662589
                 142.6    0.10639582836653
                 46.47    0.28668420124307
                  16.7    0.44843796582416
                 6.356    0.26464118141135
                 1.316   0.015326060993048
 s    8 1.00
                 14710  -0.00032119389049893
                  2207  -0.0025461915683188
                 502.8  -0.012643359507821
                 142.6   -0.05195749170489
                 46.47   -0.14344713812646
                  16.7   -0.33243762329603
                 6.356   -0.21865906750347
                 1.316     1.0955904138622
 s    1 1.00
                0.3897                   1
 p    3 1.00
                 22.67   0.064834021493887
                 4.977    0.34053535983101
                 1.347    0.73464640679382
 p    1 1.00
                0.3471                   1
 d    1 1.00
                  1.64                   1

7 0
 s    8 1.00
                 14710  0.00072067370873197
                  2207  0.0055504869689163
                 502.8   0.028254207662589
                 142.6    0.10639582836653
                 46.47    0.28668420124307
                  16.7    0.44843796582416
                 6.356    0.26464118141135
                 1.316   0.015326060993048
 s    8 1.00
                 14710  -0.00032119389049893
                  2207  -0.0025461915683188
                 502.8  -0.012643359507821
                 142.6   -0.05195749170489
                 46.47   -0.14344713812646
                  16.7   -0.33243762329603
                 6.356   -0.21865906750347
                 1.316     1.0955904138622
 s    1 1.00
                0.3897                   1
 p    3 1.00
                 22.67   0.064834021493887
                 4.977    0.34053535983101
                 1.347    0.73464640679382
 p    1 1.00
                0.3471                   1
 d    1 1.00
                  1.64                   1

8 0
 s    8 1.00
                 14710  0.00072067370873197
                  2207  0.0055504869689163
                 502.8   0.028254207662589
                 142.6    0.10639582836653
                 46.47    0.28668420124307
                  16.7    0.44843796582416
                 6.356    0.26464118141135
                 1.316   0.015326060993048
 s    8 1.00
                 14710  -0.00032119389049893
                  2207  -0.0025461915683188
                 502.8  -0.012643359507821
                 142.6   -0.05195749170489
                 46.47   -0.14344713812646
                  16.7   -0.33243762329603
                 6.356   -0.21865906750347
                 1.316     1.0955904138622
 s    1 1.00
                0.3897                   1
 p    3 1.00
                 22.67   0.064834021493887
                 4.977    0.34053535983101
                 1.347    0.73464640679382
 p    1 1.00
                0.3471                   1
 d    1 1.00
                  1.64                   1

[5d]
[7f]
[9g]

[MO]
 Sym= A
 Ene=               0
 Spin= Alpha
 Occup=    1.00000
   1    -0.00020929041830705
   2    7.7982688583945e-05
   3    0.0031679702743451
   4    0.00014423766347539
   5    -0.00045382365943318
   6    7.5481281532879e-10
   7    0.00091397401120946
   8    -0.0013140022976761
   9    1.4839858463071e-11
  10    -5.2367063665086e-05
  11    1.1813395274964e-10
  12    8.4700623641737e-11
  13    -3.1269501650157e-06
  14    -0.00012256895034534
  15       1.0019103555942
  16    0.0042193638288681
  17    -0.0073952321017363
  18    -0.00087178878842194
  19    -0.0009201993605096
  20    -1.0533048635464e-09
  21    -0.00019425932545558
  22    -0.001741190094897
  23    2.5223316462139e-10
  24    0.00033093151279337
  25    3.1775012340485e-10
  26    2.5668166618841e-10
  27    5.6099402299023e-06
  28    0.00014920760945524
  29    -5.053495727159e-05
  30    0.00043891317471305
  31    5.1301769149594e-05
  32    -8.6386437480601e-05
  33    1.6401451296825e-11
  34    0.0009722008628095
  35    0.0015388772520869
  36    -0.00013428534548468
  37    0.00019008297117633
  38    -5.1732751342113e-11
  39    -5.0473359493329e-06
  40    -5.5117139842526e-07
  41    -0.00016699545594204
  42    8.8069643928593e-06
  43    -3.7662862221316e-09
  44    -1.118544745744e-05
  45    -1.1044305373759e-05
  46    -9.0964110706977e-05
  47    9.1574120219496e-05
  48    -1.1434700683827e-05
  49    9.4981655586634e-06
  50    1.4238944871031e-05
  51    -2.9380633504142e-05
  52    -6.9980837137525e-06
  53    -5.047237644964e-06
  54    -5.5197437751929e-07
  55    -0.00016699619846422
  56    8.8070120969514e-06
  57    -1.4271859978543e-09
  58    1.1185103194831e-05
  59    -1.1044306614499e-05
  60    -9.0962543653552e-05
  61    -9.1574241599903e-05
  62    -1.1434693289864e-05
  63    -9.4981479875516e-06
  64    -1.4238882902863e-05
  65    -2.9380601738437e-05
  66    -6.9981155216034e-06
  67    0.00015382036326708
  68    0.00067281752587296
  69    -0.00014252986281096
  70    0.00011135290777948
  71    0.00011468472789176
  72    -0.00030681854533198
  73    -0.00033947582552844
  74    -0.00025489885148447
  75    0.00077990720540386
  76    -9.6047396968509e-05
  77    8.5974921385674e-05
  78    0.00010382642341497
  79    1.1870886698772e-05
  80    -2.825487097607e-05
  81    0.00015382036977432
  82    0.00067281864427652
  83    -0.00014252866032908
  84    0.0001113501267533
  85    0.0001146845201345
  86    0.00030682365185382
  87    -0.00033947780535414
  88    -0.00025489907845901
  89    -0.00077990374547171
  90    -9.6047278822414e-05
  91    -8.5974905318002e-05
  92    -0.00010382634245673
  93    1.1870867947165e-05
  94    -2.8254891648926e-05
 Sym= A
 Ene=               1
 Spin= Alpha
 Occup=    1.00000
   1       1.0019103555082
   2    0.0042193622563038
   3    -0.0073952333338831
   4    0.00087178200608945
   5    0.00092020649099671
   6    3.6725931988351e-09
   7    0.00019425691464813
   8    0.0017411920223971
   9    7.1315008674607e-10
  10    0.00033093189471511
  11    3.554466365262e-10
  12    4.7698147380184e-10
  13    5.6103891846184e-06
  14    0.00014920795547242
  15    -0.00020929061707582
  16    7.7977930752739e-05
  17     0.003167966959897
  18    -0.00014423615992079
  19    0.00045381667996805
  20    1.1431858969877e-09
  21    -0.00091397334670299
  22    0.0013140003582582
  23    1.579389842065e-10
  24    -5.2366694325906e-05
  25    -1.8631475176883e-10
  26    2.9074728273732e-11
  27    -3.1264900015943e-06
  28    -0.00012256866250979
  29    0.00097220582269408
  30    0.0015388791044983
  31      0.00013428571027
  32    -0.00019008287455583
  33    7.9225668891171e-11
  34    -5.0535238637501e-05
  35    0.00043891421369396
  36    -5.1301629469373e-05
  37    8.6386270946557e-05
  38    3.939385050951e-11
  39    0.00015382030769125
  40    0.00067281989852632
  41    -0.00014252753962383
  42    -0.00011135651027711
  43    -0.00011468725694206
  44    -0.00030682197331854
  45    0.00033947387115578
  46     0.000254896837887
  47    0.00077990502763073
  48    -9.6047350605669e-05
  49    -8.5974706130329e-05
  50    -0.00010382636587047
  51    1.1870969341126e-05
  52    -2.8254760679552e-05
  53    0.00015382079045654
  54    0.00067281602899983
  55    -0.00014253056785571
  56    -0.00011135056625799
  57    -0.00011468240234398
  58    0.00030681975636997
  59    0.00033947774548414
  60    0.00025489989644871
  61    -0.00077990612029099
  62    -9.6047346936845e-05
  63    8.5974895180631e-05
  64    0.00010382656285763
  65    1.1870998669471e-05
  66    -2.8254929485702e-05
  67    -5.0473594522169e-06
  68    -5.5102133858488e-07
  69    -0.00016699498993453
  70    -8.8065295690852e-06
  71    4.8710647473048e-09
  72    -1.1185748615669e-05
  73    1.1044516938994e-05
  74    9.0965308306449e-05
  75    9.1573878413111e-05
  76    -1.1434683841725e-05
  77    -9.4982007848559e-06
  78    -1.4238895601646e-05
  79    -2.938058644672e-05
  80    -6.9980899165785e-06
  81    -5.0472939968923e-06
  82    -5.5199110824937e-07
  83    -0.00016699580311542
  84    -8.8071829082338e-06
  85    2.1853417469728e-09
  86    1.1185743896529e-05
  87    1.1044109858902e-05
  88    9.0963499068436e-05
  89    -9.1573781346486e-05
  90    -1.1434661576532e-05
  91    9.4981650913416e-06
  92    1.4238825680759e-05
  93    -2.9380548832479e-05
  94    -6.9981394290282e-06
 Sym= A
 Ene=               2
 Spin= Alpha
 Occup=    1.00000
   1    4.3049609463791e-05
   2    4.6461241935139e-05
   3    -0.0012456692941925
   4    -5.7882402043841e-05
   5    0.00012982413601698
   6    1.916061910505e-05
   7    8.0590138511388e-06
   8    0.00070967535681427
   9    -0.00016749940753955
  10    6.1214337544898e-05
  11    -3.0782835745284e-05
  12    -5.4492964822958e-06
  13    6.1194716391077e-05
  14    2.0050976979925e-05
  15    -0.0001751447138734
  16    0.00030738034471986
  17    0.0034952541163741
  18    -0.00035496368098727
  19    -0.00054005593913896
  20    0.0008134780832675
  21    -0.0010864146767533
  22    -0.00018370440326239
  23    0.0012136726519264
  24    6.6068600384014e-05
  25    -6.7609085781126e-05
  26    -0.00011047969335507
  27    -3.6292252105745e-05
  28    4.835402055107e-05
  29    8.4545393863193e-05
  30    -8.7431780285389e-05
  31    -2.547277014183e-05
  32    5.3856530110415e-05
  33    -1.3072048619181e-05
  34    -0.00022543656059916
  35    -5.8928299541888e-05
  36    8.5452786758588e-05
  37    3.9840867824711e-05
  38    -0.0001390540673538
  39    2.6830677540494e-05
  40    5.3069320671314e-05
  41    -4.8729026131238e-05
  42    2.0598293723056e-05
  43    -1.3010707770598e-05
  44    -2.3138612236376e-06
  45    -4.7901226466919e-05
  46    6.2234083444934e-05
  47    -5.2963371255054e-06
  48    1.1146131041692e-05
  49    -1.8938620242115e-06
  50    -1.2385175711997e-06
  51    1.951686556266e-05
  52    6.6095596676798e-07
  53    -2.5714812007992e-05
  54    -4.6198290224067e-05
  55    0.00011321078515779
  56    -6.906788633087e-06
  57    2.2940931008156e-05
  58    9.1321031373058e-06
  59    3.1521464379115e-05
  60    -0.00017737808549649
  61    9.5532898688334e-06
  62    -3.1301555367186e-06
  63    4.4346327148878e-07
  64    2.6642028161771e-06
  65    1.6408219461473e-06
  66    -2.9254910328808e-06
  67       1.0010273435204
  68    0.00081519671802899
  69    -0.0057549979785862
  70    0.00086066634947638
  71    0.0010763077473832
  72    -0.0019239813631194
  73    -0.0001645871963117
  74    -0.00034584407235273
  75    0.0005459170465471
  76    -6.7244862854612e-05
  77    6.2734092760942e-05
  78    8.4570270394571e-05
  79    6.9863639556924e-06
  80    -4.811146224915e-05
  81    8.6479626453288e-05
  82    0.00014181610708443
  83    -0.00063165227478188
  84    -3.8316857448572e-05
  85    -1.7020432420659e-05
  86    -3.5664444611581e-05
  87    0.00014925888049146
  88    2.333143634437e-05
  89    -0.00040043622539739
  90    -2.2679462850762e-05
  91    2.4199355023094e-06
  92    -1.0819865622644e-05
  93    -1.0838245426492e-06
  94    1.5045636291852e-05
 Sym= A
 Ene=               3
 Spin= Alpha
 Occup=    1.00000
   1    -0.0001751627504737
   2    0.00030725430367948
   3    0.0034952146278369
   4    0.00035490259818773
   5    0.00053998474385798
   6    -0.00081332598335291
   7     0.001086434040418
   8    0.00018372828360088
   9    -0.0012136520103118
  10    6.6053934642264e-05
  11    -6.7605678293512e-05
  12    -0.00011048007222714
  13    -3.6293910887829e-05
  14    4.8357690568906e-05
  15    4.3048924808788e-05
  16    4.6463834235655e-05
  17    -0.001245646923615
  18    5.7868393766628e-05
  19    -0.00012982000375001
  20    -1.9149793778836e-05
  21    -8.095308508432e-06
  22    -0.00070965970446375
  23    0.00016749914445353
  24    6.1215659571538e-05
  25    -3.078345309079e-05
  26    -5.4428069787538e-06
  27    6.1198875460657e-05
  28    2.004891688571e-05
  29    -0.00022543112168401
  30    -5.8891824864241e-05
  31    -8.5454991413826e-05
  32    -3.9844986200205e-05
  33    0.00013905882938076
  34    8.454290305272e-05
  35    -8.7409955467389e-05
  36    2.5472524726626e-05
  37    -5.3856695679121e-05
  38    1.3072576887793e-05
  39    8.6481040041459e-05
  40    0.00014181280082894
  41    -0.00063167236399153
  42    3.8314683825459e-05
  43    1.7020355081349e-05
  44    3.5677733317474e-05
  45    -0.00014925991721194
  46    -2.3330724944818e-05
  47    0.00040044706898275
  48    -2.2682223919972e-05
  49    2.4196394137245e-06
  50    -1.0820410475399e-05
  51    -1.084059836671e-06
  52    1.5046774020826e-05
  53         1.00102734336
  54    0.00081599282499992
  55    -0.0057540636979291
  56    -0.00086035794400291
  57    -0.0010758788085606
  58    0.0019236736359299
  59    0.00016479608566531
  60    0.00034613356107428
  61    -0.00054612154871704
  62    -6.7247429365161e-05
  63    6.2742398540501e-05
  64    8.4581613825631e-05
  65    6.9886780446418e-06
  66    -4.8118681393267e-05
  67    -2.5715253619755e-05
  68    -4.6200421141446e-05
  69    0.0001132028661185
  70     6.90820304268e-06
  71    -2.2945035970742e-05
  72    -9.1294961901738e-06
  73    -3.1517062566313e-05
  74    0.00017737438157898
  75    -9.5496760078475e-06
  76    -3.1302621626561e-06
  77    4.4337587557834e-07
  78    2.6636582378101e-06
  79    1.6404015455439e-06
  80    -2.9254925342177e-06
  81    2.683203347207e-05
  82    5.3072491823957e-05
  83    -4.8738044874659e-05
  84    -2.0597063332123e-05
  85    1.3014369580678e-05
  86    2.3159646614812e-06
  87    4.7905424913347e-05
  88    -6.2234554938696e-05
  89    5.2939802378112e-06
  90    1.114633919478e-05
  91    -1.8940550084613e-06
  92    -1.2382743573827e-06
  93    1.9517087435312e-05
  94    6.6080714280942e-07
 Sym= A
 Ene=               4
 Spin= Alpha
 Occup=    1.00000
   1    4.3051836694032e-05
   2    4.6466652751364e-05
   3    -0.0012456901403498
   4    -5.7874786337387e-05
   5    0.00012981970720161
   6    -1.9164900518632e-05
   7    8.0812854071149e-06
   8    0.00070967321851038
   9    0.00016748999458866
  10    6.1213554778387e-05
  11    3.0781198794018e-05
  12    5.4488973460212e-06
  13    6.1194301414341e-05
  14    2.0050907553451e-05
  15    -0.00017514502953398
  16    0.00030741345355274
  17    0.0034952745368206
  18    -0.00035498848276821
  19    -0.00054009339931872
  20    -0.00081345859292826
  21    -0.0010864490627851
  22    -0.0001837256055899
  23    -0.0012136250006536
  24    6.602809776281e-05
  25    6.7633343954172e-05
  26    0.00011049179363296
  27    -3.6285909412726e-05
  28    4.8376813937262e-05
  29    8.4544984959024e-05
  30    -8.7411100571239e-05
  31    -2.5471744676887e-05
  32    5.3855497305113e-05
  33    1.3071383591669e-05
  34    -0.00022538655915925
  35    -5.8888583962875e-05
  36    8.5452676184937e-05
  37    3.9838983025935e-05
  38    0.00013905110528012
  39    -2.5714954126421e-05
  40    -4.6201453796115e-05
  41    0.00011320911446674
  42    -6.9101670215105e-06
  43    2.2950439341072e-05
  44    -9.1297100260682e-06
  45    3.1516297676026e-05
  46    -0.00017736959313742
  47    -9.552309550939e-06
  48    -3.1302067224932e-06
  49    -4.4359346562511e-07
  50    -2.6642192061119e-06
  51    1.6408341433242e-06
  52    -2.9257154376863e-06
  53    2.683195490378e-05
  54    5.3075482390686e-05
  55    -4.8730261913395e-05
  56    2.0596802035502e-05
  57    -1.3025552092163e-05
  58    2.3136396527253e-06
  59    -4.7903027964078e-05
  60    6.2227100011084e-05
  61    5.2985773881411e-06
  62    1.1146502943058e-05
  63    1.8937909512188e-06
  64    1.2378786205167e-06
  65    1.9517341000192e-05
  66    6.6100397898132e-07
  67    8.6481646711803e-05
  68    0.00014179862882075
  69    -0.00063171361578116
  70    -3.8332947412806e-05
  71    -1.704488382797e-05
  72    3.5704271874149e-05
  73    0.00014924660479877
  74    2.3311311509508e-05
  75    0.00040047653346837
  76    -2.2678810685824e-05
  77    -2.419466439053e-06
  78    1.0820430021972e-05
  79    -1.0835282698238e-06
  80    1.5046282202304e-05
  81       1.0010273425583
  82    0.00081525021865785
  83    -0.0057549407214836
  84    0.00086008017771657
  85     0.001075966596742
  86    0.0019244690891219
  87    -0.00016499319593806
  88    -0.00034608122566356
  89    -0.00054558409907142
  90    -6.722940475443e-05
  91    -6.2739958061186e-05
  92    -8.457038977022e-05
  93    6.9860002083124e-06
  94    -4.8120600187424e-05
 Sym= A
 Ene=               5
 Spin= Alpha
 Occup=    1.00000
   1    -0.00017515014312772
   2    0.0003073410171338
   3    0.0034952428553639
   4    0.00035494365669518
   5    0.00054003183796488
   6    0.00081343977910947
   7    0.0010864192115244
   8    0.00018370425596792
   9    0.0012136685953693
  10    6.6068895457864e-05
  11    6.7609975979536e-05
  12    0.00011047597590553
  13    -3.6289051315571e-05
  14    4.8353775805625e-05
  15    4.3048833874679e-05
  16    4.6455716122664e-05
  17    -0.001245673554628
  18    5.7879725082107e-05
  19    -0.00012983083527963
  20     1.91566264797e-05
  21    -8.0661931048602e-06
  22    -0.00070967520879978
  23    -0.0001674958517434
  24    6.1215082360786e-05
  25    3.0783665286293e-05
  26    5.4476779679856e-06
  27    6.119611685629e-05
  28    2.005045883806e-05
  29    -0.00022543222763422
  30    -5.8914787672564e-05
  31    -8.5453357775804e-05
  32    -3.9841898563475e-05
  33    -0.00013905514675957
  34    8.4542908533206e-05
  35    -8.7423945231881e-05
  36    2.5472855479229e-05
  37    -5.3856547791072e-05
  38    -1.3072335456074e-05
  39       1.0010273432553
  40    0.00081541784581297
  41    -0.0057547359762133
  42    -0.00086055733069409
  43    -0.0010762885538825
  44    -0.001923847515455
  45    0.00016466135006187
  46    0.00034585492285099
  47    0.00054600656118876
  48    -6.7247178187308e-05
  49    -6.273718096627e-05
  50    -8.457221889671e-05
  51    6.9857831778198e-06
  52    -4.8112896067663e-05
  53    8.6480070335602e-05
  54    0.00014181603126104
  55    -0.00063165366447045
  56    3.8312588894355e-05
  57    1.7016512441176e-05
  58    -3.5668907823346e-05
  59    -0.00014926180430202
  60    -2.3333876245847e-05
  61    -0.00040043828944167
  62    -2.2680420940749e-05
  63    -2.4198085242128e-06
  64    1.0819975307263e-05
  65    -1.0838116253066e-06
  66    1.5045935357247e-05
  67    2.6831023605627e-05
  68    5.3069199029888e-05
  69    -4.8732544406377e-05
  70    -2.0598649952867e-05
  71    1.3009094284114e-05
  72    -2.3148139773445e-06
  73    4.7901569567746e-05
  74    -6.2235200059613e-05
  75    -5.2958982532811e-06
  76    1.1146176474439e-05
  77    1.893944484517e-06
  78    1.2386549435981e-06
  79    1.9516897359592e-05
  80    6.6088179955111e-07
  81    -2.5715177313662e-05
  82    -4.6197800385698e-05
  83     0.000113212663495
  84    6.9071938085669e-06
  85    -2.2938245338958e-05
  86    9.1335587473376e-06
  87    -3.151993813765e-05
  88    0.00017738043896018
  89    9.5542087665283e-06
  90    -3.1300978895188e-06
  91    -4.4336474024662e-07
  92    -2.6640774883378e-06
  93    1.6407712657465e-06
  94    -2.9254777961219e-06
 Sym= A
 Ene=               6
 Spin= Alpha
 Occup=    1.00000
   1    -0.002740318937426
   2    -0.002934550266842
   3     0.013841567717318
   4    0.00032871209855249
   5    -0.00020720762383416
   6    -0.0019366005830334
   7     0.019397405125777
   8    -0.027310518942529
   9    -0.021624915652542
  10    -0.0023845422310679
  11     0.025030099709212
  12    -0.018997848841148
  13      0.02706180010825
  14    0.0079689712607932
  15    -0.0020540451921109
  16    -0.032527949704051
  17    -0.078180459827704
  18    0.0068099105323249
  19    -0.043888958985531
  20    0.0017555193125211
  21    0.0040182106810117
  22    -0.024592540259904
  23     0.028281486906968
  24    0.0016616507252436
  25    0.0022726151755608
  26    0.00010944235861319
  27    0.0012650423746714
  28    0.00012051729685615
  29     0.051504610284547
  30     0.048140499536269
  31    0.00011639474512621
  32    0.0020978662620143
  33    0.0031165153323746
  34    -0.0069896794385321
  35     0.025898833746672
  36    -0.0001341419660087
  37    0.0010094503149092
  38    -0.00032852752293459
  39    -0.0016110058158092
  40    0.00082802407520884
  41     0.014434624592457
  42       0.5465631667524
  43      -0.3843093534222
  44    -0.026385616590486
  45      0.37774508508468
  46     -0.26810863793867
  47    -0.020313449497498
  48    0.0004607735966896
  49    -0.0091423644970533
  50    0.0069931147536842
  51    -0.0077978178471258
  52    -0.0028586395331125
  53    0.00086025294020436
  54    0.00029486828308916
  55     -0.01048266850145
  56    -0.0023079814814325
  57    0.0023828025428019
  58    -0.0023268026585932
  59    -0.0010763721077796
  60    0.0050138935266645
  61    -0.0021394531411965
  62    1.6359538719341e-05
  63    0.00039680848117047
  64    -0.00021398485775569
  65    0.0007021541167684
  66    0.00023958487260409
  67    0.00047927613441774
  68    0.00051478879285292
  69    -0.004858087258865
  70    -0.0022856833492212
  71    -0.00027680792559787
  72    -0.0022452836527911
  73    -0.0035309184377278
  74    0.0024534107919558
  75    -0.0027468371639525
  76    0.00010655375578654
  77    3.7742424718152e-05
  78    0.00066723149586618
  79    8.9260019158212e-05
  80    -5.1915648429443e-05
  81    -0.0013815258507517
  82    0.0016150112598108
  83     0.021425075966268
  84    0.0042685521900667
  85     0.009704756287338
  86    0.0073365543012035
  87    0.0066810875696898
  88     0.010028684287817
  89    0.0087190897427797
  90    0.00041916972927844
  91    0.00035632431314619
  92    -0.00042145559696542
  93    0.00057517552941088
  94    -0.00012846449539968
 Sym= A
 Ene=               7
 Spin= Alpha
 Occup=    1.00000
   1    0.0020540228702694
   2     0.032528012420345
   3     0.078180869715453
   4    0.0068101913083492
   5    -0.043889110363603
   6    -0.0017557213086919
   7    0.0040188602524215
   8    -0.024592819557958
   9    -0.028281469352696
  10    -0.0016616318149336
  11    0.0022725960490341
  12    0.00010957058185462
  13    -0.0012649572054116
  14    -0.00012057539164415
  15    0.0027399749295083
  16    0.0029319615440817
  17     -0.01384224622694
  18    0.00033018760632552
  19    -0.0002053894101142
  20    0.0019336002122027
  21     0.019397136900732
  22    -0.027310790479437
  23     0.021624663981494
  24    0.0023843635027608
  25      0.02503023920875
  26    -0.018997752028961
  27    -0.027061806805871
  28    -0.0079690023200789
  29    0.0069896239772922
  30    -0.025898439661501
  31    -0.00013414045301728
  32     0.001009450952933
  33    0.00032851435262562
  34     -0.05150446022986
  35    -0.048139819929889
  36    0.00011643204241206
  37    0.0020979589400131
  38    -0.0031166178748724
  39    -0.00047925416816534
  40    -0.00051475577515365
  41    0.0048578846436655
  42    -0.0022856840077605
  43    -0.00027681800202945
  44    0.0022452557876573
  45    -0.0035309841798097
  46     0.002453457293673
  47    0.0027469016506439
  48    -0.00010655190213905
  49    3.7737374607451e-05
  50    0.00066723434069025
  51    -8.9258920290462e-05
  52    5.1912536114417e-05
  53    0.0013815276503044
  54    -0.0016150557207358
  55    -0.021425218966372
  56    0.0042685295285269
  57    0.0097048844027782
  58    -0.0073366130666623
  59    0.0066810019098304
  60     0.010028787303686
  61    -0.0087191596265715
  62    -0.00041917150105388
  63    0.00035632260589411
  64    -0.00042146490024751
  65    -0.00057518286711108
  66    0.00012846419458137
  67    0.0016108988535523
  68    -0.00081298640498505
  69    -0.014416913744396
  70      0.54655839353697
  71     -0.38431585641135
  72      0.02639376926116
  73      0.37774187658468
  74     -0.26811299073276
  75     0.020318888950013
  76    -0.0004608935275532
  77    -0.0091422024286598
  78    0.0069933326427286
  79    0.0077978516908148
  80    0.0028585268119975
  81    -0.0008602258660932
  82    -0.00029492639404318
  83     0.010482409885382
  84    -0.0023080129839638
  85    0.0023827614946827
  86    0.0023266874241674
  87    -0.001076402257498
  88    0.0050138435135179
  89    0.0021393951547997
  90    -1.6419823561977e-05
  91    0.00039680071628966
  92    -0.00021399586899578
  93    -0.00070215847553917
  94    -0.00023956626109252
 Sym= A
 Ene=               8
 Spin= Alpha
 Occup=    1.00000
   1    0.0020540119474093
   2     0.032527574234011
   3     0.078179879995671
   4    0.0068095613532564
   5     -0.04388837803789
   6    0.0017553494250718
   7    0.0040172640675344
   8     -0.02459209389074
   9     0.028281437940701
  10    -0.0016616436410763
  11    -0.0022726006976048
  12    -0.00010931876791765
  13    -0.0012651081745431
  14    -0.00012045688844946
  15    0.0027406071377981
  16    0.0029365343445964
  17    -0.013841226693225
  18    0.00032774316600475
  19    -0.00020839590126252
  20    -0.0019398913712216
  21     0.019398079434959
  22    -0.027309781115631
  23     -0.02162579690824
  24    0.0023853717087698
  25    -0.025030133538719
  26     0.018997656225722
  27    -0.027061707122762
  28    -0.007969225866244
  29    0.0069896379900613
  30    -0.025899333949335
  31    -0.00013416187797821
  32    0.0010094625794522
  33    -0.00032852853424658