[Molden Format]
made by pyscf v[2.0.1]
[Atoms] (AU)
C   1   6     0.00000000000000     0.00000000000000     0.00000000000000
C   2   6     2.85272299873892     0.00000000000000     0.00000000000000
H   3   1     3.62066923017674     0.00000000000000     1.90331545357504
F   4   9     3.65943188126013    -2.04308229183900    -1.24074875274501
F   5   9     3.65943188126013     2.04308229183900    -1.24074875274501
F   6   9    -0.80670888252121     1.79658952118831    -1.57667650804493
H   7   1    -0.76794623143782     0.33050726003861     1.87439981510865
F   8   9    -0.80670888252121    -2.22749704090168    -0.86712147444210
[GTO]
1 0
 s    8 1.00
                  6665  0.00069158396281299
                  1000  0.0053257961529341
                   228   0.027060721042034
                 64.71    0.10165684614077
                 21.06     0.2745748236174
                 7.495    0.44829431892377
                 2.797    0.28490261071525
                0.5215   0.015194859206082
 s    8 1.00
                  6665  -0.00029326965268655
                  1000  -0.0023180354739745
                   228  -0.011499786038565
                 64.71  -0.046826727009787
                 21.06   -0.12846616875047
                 7.495   -0.30126627246289
                 2.797   -0.25563070233011
                0.5215      1.093793361012
 s    1 1.00
                0.1596                   1
 p    3 1.00
                 9.439   0.056979251590039
                 2.002    0.31320721150073
                0.5456    0.76037674173753
 p    1 1.00
                0.1517                   1
 d    1 1.00
                  0.55                   1

2 0
 s    8 1.00
                  6665  0.00069158396281299
                  1000  0.0053257961529341
                   228   0.027060721042034
                 64.71    0.10165684614077
                 21.06     0.2745748236174
                 7.495    0.44829431892377
                 2.797    0.28490261071525
                0.5215   0.015194859206082
 s    8 1.00
                  6665  -0.00029326965268655
                  1000  -0.0023180354739745
                   228  -0.011499786038565
                 64.71  -0.046826727009787
                 21.06   -0.12846616875047
                 7.495   -0.30126627246289
                 2.797   -0.25563070233011
                0.5215      1.093793361012
 s    1 1.00
                0.1596                   1
 p    3 1.00
                 9.439   0.056979251590039
                 2.002    0.31320721150073
                0.5456    0.76037674173753
 p    1 1.00
                0.1517                   1
 d    1 1.00
                  0.55                   1

3 0
 s    3 1.00
                 13.01   0.033498726389998
                 1.962    0.23480080117413
                0.4446     0.8136829578829
 s    1 1.00
                 0.122                   1
 p    1 1.00
                 0.727                   1

4 0
 s    8 1.00
                 14710  0.00072067370873197
                  2207  0.0055504869689163
                 502.8   0.028254207662589
                 142.6    0.10639582836653
                 46.47    0.28668420124307
                  16.7    0.44843796582416
                 6.356    0.26464118141135
                 1.316   0.015326060993048
 s    8 1.00
                 14710  -0.00032119389049893
                  2207  -0.0025461915683188
                 502.8  -0.012643359507821
                 142.6   -0.05195749170489
                 46.47   -0.14344713812646
                  16.7   -0.33243762329603
                 6.356   -0.21865906750347
                 1.316     1.0955904138622
 s    1 1.00
                0.3897                   1
 p    3 1.00
                 22.67   0.064834021493887
                 4.977    0.34053535983101
                 1.347    0.73464640679382
 p    1 1.00
                0.3471                   1
 d    1 1.00
                  1.64                   1

5 0
 s    8 1.00
                 14710  0.00072067370873197
                  2207  0.0055504869689163
                 502.8   0.028254207662589
                 142.6    0.10639582836653
                 46.47    0.28668420124307
                  16.7    0.44843796582416
                 6.356    0.26464118141135
                 1.316   0.015326060993048
 s    8 1.00
                 14710  -0.00032119389049893
                  2207  -0.0025461915683188
                 502.8  -0.012643359507821
                 142.6   -0.05195749170489
                 46.47   -0.14344713812646
                  16.7   -0.33243762329603
                 6.356   -0.21865906750347
                 1.316     1.0955904138622
 s    1 1.00
                0.3897                   1
 p    3 1.00
                 22.67   0.064834021493887
                 4.977    0.34053535983101
                 1.347    0.73464640679382
 p    1 1.00
                0.3471                   1
 d    1 1.00
                  1.64                   1

6 0
 s    8 1.00
                 14710  0.00072067370873197
                  2207  0.0055504869689163
                 502.8   0.028254207662589
                 142.6    0.10639582836653
                 46.47    0.28668420124307
                  16.7    0.44843796582416
                 6.356    0.26464118141135
                 1.316   0.015326060993048
 s    8 1.00
                 14710  -0.00032119389049893
                  2207  -0.0025461915683188
                 502.8  -0.012643359507821
                 142.6   -0.05195749170489
                 46.47   -0.14344713812646
                  16.7   -0.33243762329603
                 6.356   -0.21865906750347
                 1.316     1.0955904138622
 s    1 1.00
                0.3897                   1
 p    3 1.00
                 22.67   0.064834021493887
                 4.977    0.34053535983101
                 1.347    0.73464640679382
 p    1 1.00
                0.3471                   1
 d    1 1.00
                  1.64                   1

7 0
 s    3 1.00
                 13.01   0.033498726389998
                 1.962    0.23480080117413
                0.4446     0.8136829578829
 s    1 1.00
                 0.122                   1
 p    1 1.00
                 0.727                   1

8 0
 s    8 1.00
                 14710  0.00072067370873197
                  2207  0.0055504869689163
                 502.8   0.028254207662589
                 142.6    0.10639582836653
                 46.47    0.28668420124307
                  16.7    0.44843796582416
                 6.356    0.26464118141135
                 1.316   0.015326060993048
 s    8 1.00
                 14710  -0.00032119389049893
                  2207  -0.0025461915683188
                 502.8  -0.012643359507821
                 142.6   -0.05195749170489
                 46.47   -0.14344713812646
                  16.7   -0.33243762329603
                 6.356   -0.21865906750347
                 1.316     1.0955904138622
 s    1 1.00
                0.3897                   1
 p    3 1.00
                 22.67   0.064834021493887
                 4.977    0.34053535983101
                 1.347    0.73464640679382
 p    1 1.00
                0.3471                   1
 d    1 1.00
                  1.64                   1

[5d]
[7f]
[9g]

[MO]
 Sym= A
 Ene=               0
 Spin= Alpha
 Occup=    1.00000
   1       1.0018671506433
   2    -0.00090540296053614
   3    -0.0093677613974047
   4    -0.00012431831672007
   5    -0.00051157897905122
   6    -0.0028081450517115
   7    -0.0016151730643335
   8    -0.0002492845656664
   9    -0.0014166359183798
  10    -6.5243612315158e-05
  11    8.6580973028774e-05
  12    -6.5626604212341e-05
  13    -0.00026912317448824
  14    1.9627805227515e-05
  15    -0.00021924273888849
  16    -0.00085110743655844
  17     0.002967287241287
  18    0.0010963955380906
  19    -1.7942139026568e-05
  20    5.3424419618905e-05
  21    -0.00098256820395185
  22    -2.4304150230293e-05
  23    7.3036303140603e-05
  24    8.5804751662276e-05
  25    -5.3662801515916e-05
  26    -5.9127427166528e-06
  27    -0.00020776551620056
  28    -1.9911309798758e-06
  29    0.00017282178438089
  30    0.00029925032058175
  31    -3.4006855797527e-05
  32    1.4024216735479e-06
  33    -6.0378682126422e-05
  34    -1.268268273339e-05
  35    4.1519901289424e-06
  36    -0.00010623047305279
  37    -0.00012120046804786
  38    1.8086192039369e-05
  39    -5.6166547803108e-06
  40    -0.00026089975173983
  41    -8.7084206887101e-05
  42     -4.6844049684e-05
  43    -1.094763562371e-05
  44    -1.9596748541674e-06
  45    3.1752892146495e-06
  46    2.7553699619946e-05
  47    -1.9456953680118e-06
  48    -2.3213266638169e-05
  49    -3.9700632658775e-06
  50    -2.2492242285563e-05
  51    -0.00013484432649185
  52    -2.6907201036293e-05
  53    1.3582530871544e-05
  54    -0.00030829096003541
  55    7.7469156091027e-05
  56    -2.0884684176855e-05
  57    -1.084007906041e-05
  58    -1.103137576061e-06
  59    -5.6080584416747e-06
  60    2.6806237007599e-05
  61    1.6458751151232e-06
  62    0.00012312668161093
  63    -0.00013659515090335
  64    -0.00060968063522438
  65    -0.00044963348760306
  66    0.00094910217668021
  67    -0.00073412498231012
  68    -0.00042859028080763
  69    0.0014173057995465
  70    -0.00094632917147011
  71    -3.3586331956269e-05
  72    -8.1138041026864e-05
  73    0.00023492748860022
  74    9.9768892637586e-05
  75    0.00010447907409466
  76    -0.0031615321861591
  77    0.00076942517734527
  78    2.578513189948e-05
  79    6.6610893881454e-05
  80    0.00036465497779376
  81    0.00012697691766315
  82    -0.00012998801414019
  83    -0.00063245539520621
  84    -0.00044937631175694
  85    -0.0011452380224128
  86    -0.00036252964657857
  87    -0.00043622721901347
  88    -0.0016688297016133
  89    -0.00040602163310772
  90    9.3977733598185e-05
  91    -4.1344901856574e-05
  92    -0.00016832821158389
  93    0.00017469465256762
  94    -0.00012704389128285
 Sym= A
 Ene=               1
 Spin= Alpha
 Occup=    1.00000
   1    -0.00021924312107001
   2    -0.00085108779914513
   3    0.0029673021766096
   4    -0.0010963656642262
   5    2.6947468132352e-05
   6    4.9504714990377e-05
   7    0.00098257690038434
   8    3.6617464532397e-05
   9    6.7709088074215e-05
  10    8.5596884497819e-05
  11    5.3192742912054e-05
  12    -4.5585100984809e-06
  13    -0.0002078819588978
  14    7.3576241132921e-06
  15       1.0018671507958
  16    -0.00090539609299091
  17    -0.0093677520095229
  18    0.00012428190433327
  19    1.6179081056424e-05
  20    -0.0028543179039744
  21    0.0016151629523614
  22    -4.9887815191771e-07
  23    -0.0014384025306197
  24    -7.4704866365403e-05
  25    -8.8673720967143e-05
  26    -3.6794392196292e-06
  27    -0.00027458128804872
  28    4.2952514675188e-06
  29    -0.0031615420278596
  30    0.0007694192388893
  31    -2.5785649843443e-05
  32    -2.2772111618671e-06
  33    0.00037068261372701
  34    0.00012312691698738
  35    -0.00013659847413222
  36    -0.00060968459530594
  37    0.00044963779233757
  38    -0.0010621764127972
  39    -0.00055816309422655
  40    0.00042859537278216
  41    -0.0015601110230132
  42    -0.00068583993675999
  43    3.4912588221468e-05
  44    6.1762653088263e-05
  45    -0.0002136467586062
  46    0.00013931723328719
  47    0.00011698118315226
  48    0.00012697713687353
  49    -0.00012999007453451
  50    -0.00063245830201182
  51    0.00044938357857082
  52    0.0010648919231946
  53    -0.00055589506635457
  54    0.00043623441403617
  55    0.0015729746423168
  56    -0.00068964536696119
  57    3.5306555694279e-05
  58    6.2777643628078e-05
  59    0.00021588768393145
  60    0.00014082120415187
  61    -0.00011793421580401
  62    -1.2682699526078e-05
  63    4.1502119806851e-06
  64    -0.00010623341611747
  65    0.00012119483588067
  66    -1.8782905342836e-05
  67    -2.3949697673724e-06
  68    0.00026089384357473
  69    7.762914234327e-05
  70    -6.1257578313733e-05
  71    -1.0231519188045e-05
  72    2.2679112919697e-06
  73    -1.5143732779085e-06
  74    2.7967362370307e-05
  75    -1.5759884214192e-06
  76    0.00017282642220382
  77    0.00029924775981287
  78    3.4007886960431e-05
  79    -1.1865834317754e-05
  80    -5.9218385617785e-05
  81    -2.3213215227524e-05
  82    -3.9726975573994e-06
  83    -2.249671429421e-05
  84    0.00013483775720071
  85    2.8851395637898e-05
  86    8.705700240589e-06
  87    0.00030828442264627
  88    -7.9922633038277e-05
  89    -7.1140966734617e-06
  90    -1.2710805842866e-05
  91    8.0070612051756e-07
  92    6.6432021661642e-06
  93    2.5726368447325e-05
  94    1.8125852814897e-06
 Sym= A
 Ene=               2
 Spin= Alpha
 Occup=    1.00000
   1    8.6918867443888e-05
   2    0.00011444081810544
   3    -0.0019638855335776
   4    -0.00011929417144154
   5    1.0066340368614e-06
   6    -2.0829178895954e-05
   7    -0.00092302201841926
   8    -0.00027377994802621
   9    0.00057066742197392
  10    7.5213249140085e-06
  11    4.0386951526184e-05
  12    -6.3254176633343e-05
  13    -7.0473437388368e-05
  14    -1.7459217577969e-05
  15    -6.5704509245789e-05
  16    9.4375153936912e-07
  17    0.0041046149026312
  18    0.00024840709802189
  19    0.00044268843960781
  20    -0.00026068172665354
  21    -0.0004524224542746
  22    0.0011107938642744
  23    -0.0011274117945813
  24    3.3557349813911e-06
  25    3.564727645116e-05
  26    6.4283881390142e-05
  27    4.7371517355268e-05
  28    -3.6912529129667e-05
  29    -0.00025143436217195
  30    -8.2185657190366e-05
  31    9.5906158977177e-06
  32    -0.00013343364467464
  33    0.0001277555505025
  34    0.00011091023007945
  35    0.00020649854037335
  36    -0.0007886470163294
  37    3.1717271613795e-06
  38    1.0126580807494e-05
  39    -4.710317835809e-05
  40    7.2091506811853e-05
  41    -0.00040467568725854
  42    0.00011406557558176
  43    2.1235000605777e-05
  44    -1.1266965497558e-05
  45    -2.6472240053175e-06
  46    2.2085535785388e-05
  47    1.3484506095725e-05
  48       1.0010191059528
  49    -0.0039535432042355
  50    -0.011109149650285
  51    -0.0011121654784526
  52    -0.0024048436638879
  53    0.0014130100356848
  54    -2.7794300445899e-05
  55    0.00016542404616653
  56    -7.5539539435229e-05
  57    1.3306684411512e-05
  58    5.1109537935484e-05
  59    0.0001007925578388
  60    8.8590888011483e-05
  61    -7.165394455842e-05
  62    -6.5541893114273e-05
  63    -0.00012353897617449
  64    0.0004250884040143
  65    -5.9022079864999e-06
  66    3.2311989049986e-05
  67    -2.7771184058923e-05
  68    6.195646561374e-05
  69    -9.1948138845719e-05
  70    4.6606038021191e-05
  71    5.7472732178154e-06
  72    -3.9407969277907e-07
  73    1.0913025208974e-05
  74    -1.6678529993933e-05
  75    -9.6758707986172e-07
  76    9.7167622801186e-05
  77    -0.00016132570232135
  78    3.6057573633642e-05
  79    4.0218460180608e-05
  80    -4.0565762810986e-05
  81    -2.9549340639617e-05
  82    -4.9890787947048e-05
  83    0.00023741097900456
  84    1.5039474666122e-06
  85    3.2357584821658e-06
  86    1.8708042450035e-05
  87    9.9582199701231e-05
  88    0.00010436423306793
  89    -6.0722269693958e-05
  90    -6.8088619103762e-06
  91    1.4334174209323e-06
  92    -1.2967901392852e-05
  93    -1.3594985601165e-05
  94    3.4590703404917e-06
 Sym= A
 Ene=               3
 Spin= Alpha
 Occup=    1.00000
   1    -6.5672389204318e-05
   2    1.0570349065161e-06
   3     0.004104703450593
   4    -0.00024843532193345
   5    -0.00048138216219583
   6    -0.0001798860759707
   7    0.00045247865332809
   8    -0.0012896947059345
   9    -0.00091735247011135
  10    2.1017262077975e-05
  11    -2.8715565814896e-05
  12    -5.1323493840772e-05
  13    5.7552946701264e-05
  14    -4.2582734685452e-05
  15    8.6920827700611e-05
  16    0.00011442315492866
  17    -0.0019640037673825
  18    0.00011933980271099
  19    -4.6223827268034e-06
  20    -2.0338020780702e-05
  21    0.00092308500458527
  22    0.00036869080531502
  23    0.0005144345440962
  24    -9.7150672759009e-06
  25    -3.6737684141557e-05
  26    4.9614435662013e-05
  27    -8.0426165912488e-05
  28    -2.419825800037e-05
  29    9.7182314209349e-05
  30    -0.00016130136331758
  31    -3.6054957933223e-05
  32    -4.6651094130907e-05
  33    -3.2965973605479e-05
  34    -6.5541169991817e-05
  35    -0.00012354230964872
  36    0.00042507365086509
  37    5.9060532810894e-06
  38    -3.6651964441251e-05
  39    -2.1745897552356e-05
  40    -6.1954232868253e-05
  41    9.8642221875981e-05
  42    2.9927750040499e-05
  43    9.1552271153934e-06
  44    5.5613381000072e-07
  45    -1.1404869449093e-05
  46    -1.4710403761089e-05
  47    -8.84033177011e-07
  48    -2.9549874832203e-05
  49    -4.9886555736292e-05
  50    0.00023742892940346
  51    -1.5177325121884e-06
  52    5.6732031777982e-08
  53    1.8992847634147e-05
  54    -9.9599454628694e-05
  55    -0.00011332748638318
  56    -4.1667308872586e-05
  57    -9.9866212099155e-06
  58    -2.011558310515e-06
  59    7.8440929326385e-06
  60    -1.5430539861135e-05
  61    3.1569155620741e-06
  62    0.00011090960444285
  63    0.00020650826125629
  64    -0.00078862559142385
  65    -3.1718130383222e-06
  66    -1.8170607795212e-05
  67    -4.4620124258842e-05
  68    -7.2093567703476e-05
  69    0.00041832024021017
  70    4.2065624571641e-05
  71    1.8912413030277e-05
  72    8.7527963735676e-06
  73    1.2553449464255e-05
  74    2.0743681385738e-05
  75    1.5235377079039e-05
  76    -0.00025141829592597
  77    -8.2224021333746e-05
  78    -9.5979360324106e-06
  79    0.00015358367128958
  80    0.00010264562005674
  81       1.0010190766729
  82    -0.0039553577124724
  83    -0.011111231186791
  84    0.0011130352393387
  85     0.002614167358562
  86    0.00097427490085043
  87    2.8393922345731e-05
  88    -0.00017568667413175
  89    -4.5444323186492e-05
  90    4.0242358290641e-05
  91    -3.7881986989159e-05
  92    -7.5614740601994e-05
  93    0.00010414436858236
  94    -7.9423324685945e-05
 Sym= A
 Ene=               4
 Spin= Alpha
 Occup=    1.00000
   1    8.8338535398047e-05
   2    0.00012064161153108
   3    -0.0019177118529179
   4    -0.00012737381112802
   5    2.8220903359636e-06
   6    -1.6249998830894e-05
   7    -0.00081919119965963
   8    0.00034425482068705
   9    0.00052636008581874
  10    4.204023126767e-06
  11    2.603318605517e-05
  12    6.0681079684015e-05
  13    -6.8241778868402e-05
  14    2.6128710410058e-05
  15    -6.230450709268e-05
  16    5.0241854630162e-06
  17     0.004006863952458
  18    0.00025237074179503
  19    -0.00044662131556656
  20    -0.00025739405277454
  21    -0.00039828682375897
  22    -0.0011078122710825
  23    -0.001122248150161
  24    1.5838280674523e-06
  25    2.6938430752697e-05
  26    -6.956279746131e-05
  27    4.3800286671314e-05
  28    4.3787581962025e-05
  29    -0.0002448630170591
  30    -0.00010168052637347
  31    9.6779310157921e-06
  32    0.00013174309130374
  33    0.00012642783013659
  34       1.0010174281123
  35    -0.0039527404271587
  36     -0.01109163462831
  37    -0.0011006968732043
  38    0.0023812564049303
  39    0.0014547881054564
  40    -2.7921141135183e-05
  41    -0.0001861908765823
  42    -3.1673719670899e-05
  43    1.4887049713978e-05
  44    4.8777755053837e-05
  45    -0.00010003966941992
  46    8.8478848763532e-05
  47    7.2617667315784e-05
  48    0.00011219617214623
  49    0.00021008769629148
  50     -0.00079455436501
  51    4.8727460506712e-06
  52    -1.351912242111e-05
  53    -4.7523408226664e-05
  54    6.7584308062473e-05
  55    0.00040776163654939
  56    0.00011439633192506
  57    2.1535185685436e-05
  58    -1.1471285220023e-05
  59    3.4138446682388e-06
  60    2.2780026554012e-05
  61    -1.3514230544328e-05
  62    -2.1656005131036e-05
  63    -3.5160388042476e-05
  64    0.00024587588312436
  65    2.3071423434441e-05
  66    -1.6745950818938e-06
  67    1.4164204604475e-05
  68    2.1274583149305e-05
  69    -0.00010758419821443
  70    -3.5659295779761e-06
  71    -5.4132986692574e-06
  72    4.5649723978194e-06
  73    -7.8170899877843e-07
  74    -1.8824039730277e-05
  75    -7.8397978497835e-08
  76    6.4332337016277e-05
  77    -8.2817325785179e-05
  78    4.3953617535611e-05
  79    -4.9868376450378e-05
  80    -2.3046230744091e-05
  81    -6.50614930312e-05
  82    -0.00012267601484336
  83    0.00041338870056755
  84    -6.3392973728918e-06
  85    -4.5601649604615e-05
  86    -2.6599402529632e-06
  87    5.9429349928938e-05
  88    0.00012335050229372
  89    -3.1168961512353e-05
  90    1.2337157471576e-05
  91    8.7658328409052e-07
  92    -7.5343642879233e-06
  93    -1.2311493064157e-05
  94    -5.3069927515958e-07
 Sym= A
 Ene=               5
 Spin= Alpha
 Occup=    1.00000
   1    -6.2270390952194e-05
   2    5.1598183399214e-06
   3    0.0040069581313342
   4    -0.00025241389475639
   5    0.00039529389257662
   6    -0.00033116207377084
   7    0.00039834917163751
   8    0.00089611465424277
   9    -0.001297536280455
  10    -2.0221661787544e-05
  11    -3.4164427551461e-05
  12    7.332925907841e-05
  13    3.118940318373e-05
  14    3.8478536478259e-05
  15    8.8340976101501e-05
  16    0.00012061956820823
  17    -0.0019178472019088
  18    0.00012743322474092
  19    -5.5898127606555e-06
  20    -1.5515309777411e-05
  21    0.00081926753112973
  22    -0.0002476055394302
  23    0.00057811208878385
  24    2.3771257751053e-05
  25    -3.0166704378141e-05
  26    -6.744650216974e-05
  27    -5.694566255638e-05
  28    2.1203157347861e-05
  29    6.4356303708147e-05
  30    -8.2782586385062e-05
  31    -4.3949713233908e-05
  32    4.5108529573849e-05
  33    -3.1355396358128e-05
  34    -2.1656395128974e-05
  35    -3.5157901167908e-05
  36    0.00024588780715134
  37    -2.308311988326e-05
  38    4.1105036137789e-06
  39    1.3664471130288e-05
  40    -2.1293016437214e-05
  41    0.00010533191420304
  42    -2.2184285891721e-05
  43    -4.9080335361228e-06
  44    -4.4811708983975e-06
  45    -4.0877168922326e-06
  46    -1.8533199482529e-05
  47    -8.6921120909427e-07
  48    -6.5061004484499e-05
  49    -0.00012268111737779
  50     0.000413373280247
  51    6.3457456646171e-06
  52    4.4457054136299e-05
  53    -1.0545675632867e-05
  54    -5.9426747921138e-05
  55    -0.00012688398427293
  56    -9.2762736536244e-06
  57    9.8688724581832e-06
  58    -7.7062740850297e-07
  59    8.6289195545528e-06
  60    -1.3735754346304e-05
  61    -6.7533814264861e-07
  62       1.0010173972162
  63    -0.0039546028382514
  64    -0.011093776123002
  65    0.0011016792089707
  66    -0.0020929667763867
  67    0.0018465730738703
  68    2.8598230181186e-05
  69    0.00017751066081343
  70    -6.3263280627388e-05
  71    -1.7730402570142e-05
  72    -6.0631767676391e-05
  73     0.000113537211392
  74    6.9649137319893e-05
  75    6.3027757945635e-05
  76    -0.00024484048465594
  77    -0.00010171063363732
  78    -9.6866746369528e-06
  79    -0.00010777837317067
  80    0.00014738241394341
  81    0.00011219580431618
  82    0.00021009293680719
  83    -0.00079454282292978
  84    -4.8762055157589e-06
  85    5.0676231714022e-06
  86    -4.9139698155792e-05
  87    -6.7589519306361e-05
  88    -0.00038169817463633
  89    0.00018346994262033
  90    2.0976098142874e-05
  91    1.3641940468528e-05
  92    7.0654116488107e-06
  93    2.2455929355249e-05
  94    -1.1316741442974e-05
 Sym= A
 Ene=               6
 Spin= Alpha
 Occup=    1.00000
   1    0.0011353509918241
   2     0.022147148191897
   3     0.070692924993687
   4     0.037349865301341
   5    0.0015278472474203
   6    -0.003275810377369
   7     0.041941471893313
   8    -0.013870228671171
   9     0.003452269836951
  10    0.00023298252578387
  11    -0.0020765091912871
  12    0.00052126374245863
  13    0.00061522518499248
  14    0.0017113966597787
  15    0.0027468503480856
  16    0.0039345448652651
  17    -0.028543206960526
  18     0.013917635835087
  19    0.0049281363466151
  20     0.011864648911192
  21     0.044883911683597
  22     0.025641170566986
  23     0.013933644807472
  24    -0.024592272435335
  25    -0.0096165146444442
  26     0.018186391459453
  27    0.0087757213762241
  28     0.026552174211018
  29    -0.040365320083464
  30     -0.04644590586889
  31    -0.0022235645729535
  32    -0.0032572726390455
  33    -0.00052057530314406
  34    -0.00099903660652274
  35    0.00080333309611848
  36      0.01501927542051
  37    -0.0049846487331503
  38    0.0041943568867979
  39    -0.0016556337181298
  40    -0.0082565981499016
  41    0.0040662843978451
  42    0.0012251953021937
  43    -0.00044162691019453
  44    -0.00014184610921783
  45    0.00048086324966728
  46    0.00020967108015905
  47    0.0004331028189115
  48    0.00095213311091636
  49    -0.012028434778748
  50    -0.025513029905588
  51      0.51952899739699
  52     0.043974780669689
  53       0.4200296726904
  54      0.35839615913821
  55     0.033183358240651
  56      0.28771768444975
  57    0.0078377731942065
  58    0.0026891214289048
  59    -0.0066658046015467
  60    -0.0027172253303271
  61    -0.0095100338600234
  62    0.0011028225863303
  63    0.0081121202643356
  64    0.0069216841960985
  65     0.012472275740948
  66    0.0019895279746229
  67    -0.002245218893643
  68     0.001585287237265
  69    0.00036049633331516
  70    0.0021347690077386
  71    0.00080584573868734
  72    0.00080551200367145
  73    -0.00030863751889278
  74    -0.0014569686382739
  75    -0.0009217184503389
  76    -0.0061464162400652
  77    -0.0089451925925901
  78    0.00053702665723374
  79    0.0014624290962404
  80    0.00063570959125232
  81    -8.0913084006533e-05
  82    -0.0021573194231743
  83    -0.0076576419524545
  84    -0.0067321747890142
  85    -0.0028006554668315
  86    -0.0012705627317554
  87    -0.0060195159058926
  88    -0.0032945324216087
  89    -0.0031895822822353
  90    -0.00026612887674255
  91    0.00019988427744716
  92    -0.00018110247695468
  93    0.00048657013832827
  94    0.00062393778636539
 Sym= A
 Ene=               7
 Spin= Alpha
 Occup=    1.00000
   1    0.0014822118556386
   2     0.017984325213727
   3     0.042133981685772
   4     0.029692963630623
   5    -0.0006658988943423
   6    -0.0020939221582786
   7     0.032296176713251
   8     0.004057013621093
   9    0.0068996516753891
  10    0.00033234769745277
  11    -0.0021025188317025
  12    -8.7922297841819e-05
  13    8.105554055002e-05
  14    -0.0011140594747638
  15     0.002658357131169
  16     0.013476460853336
  17    -0.0078844513989277
  18     0.024177043493999
  19     0.031159208499448
  20    -0.021983383653084
  21      0.03458556588532
  22     0.031974987974936
  23    -0.023847278364071
  24     0.014675959577443
  25    -0.017729134632447
  26    0.0081777445852381
  27     0.029258733656376
  28    -0.018673933202669
  29    0.0064499836612534
  30    0.0030640783985123
  31    0.00017443199006334
  32    -0.00018053564025201
  33    0.00029679539400304
  34    0.00057852571343105
  35    -0.004119441542039
  36    -0.0084031557982101
  37      0.46234688064363
  38      0.37115815250679
  39     -0.29955429061564
  40      0.31901405352868
  41      0.25341340294764
  42     -0.20781816004725
  43    -0.0061705649215163
  44    0.0079185069906163
  45    -0.0011629484444657
  46    -0.0099873378075799
  47    0.0055338238770071
  48    0.0013164867591119
  49    -0.014690831302636
  50    -0.046310439695122
  51    0.0021618949522883
  52     0.037319178131475
  53    -0.0084830802132015
  54    0.0013796329260069
  55     0.035969983801236
  56    -0.0068843813171741
  57    0.00014120194934861
  58    -0.00068511774116946
  59    0.00023711336891044
  60    -0.00018861848704217
  61    -0.00045488407555961
  62    0.0001667081456529
  63    -0.0017662445934668
  64    -0.0051078085618467
  65    -0.0068631435031653
  66     0.002371743555972
  67    -0.0027236017707632
  68    -0.011015687229477
  69    0.00067601390124309
  70    -0.0035796933317601
  71    -0.00020986406612195
  72    0.00020021765078029
  73    0.00019804668381013
  74    0.00014049128216793
  75    -0.00021439955987724
  76    -0.0055339698970321
  77    -0.0056316400407034
  78    0.0022609397801297
  79    -0.0003642830450277
  80    0.00062491602486849
  81    0.00086779045687104
  82    0.0081337352261162
  83    0.0095962452180343
  84     0.013283463231053
  85    -0.0019819319051092
  86    0.0023689265818221
  87     0.004580044742572
  88    0.0031016847117438
  89    0.0010689629444216
  90    0.0005450810030904
  91    0.00029481239419309
  92    0.00014910996624732
  93    -0.0015022313012221
  94    0.0010435052462852
 Sym= A
 Ene=               8
 Spin= Alpha
 Occup=    1.00000
   1    -0.0026577826439611
   2    -0.013475541417095
   3    0.0078798488470302
   4     0.024174452148373
   5     0.034507325133996
   6     0.016241151234638
   7     0.034577704829853
   8      0.03563822771894
   9     0.017935739435612
  10    -0.015677710271043
  11    -0.020700346171755
  12    -0.0016635414608556
  13    -0.029832915300329
  14     0.015306781223863
  15    -0.0014819179085406
  16     -0.01798027012427
  17    -0.042121161473255
  18     0.029686245563491
  19    -0.0002919524398284
  20    0.0021770810988855
  21     0.032289548316056
  22    0.0027941767233475
  23    -0.0074967713833307
  24    -0.000289268721275
  25    -0.0022637199852351
  26    -0.00019478936300812
  27    -5.6027326073145e-05
  28    0.0007316755788585
  29    0.0055321799899558
  30    0.0056281808869356
  31    0.0022608908342293
  32    -0.00046707433040257
  33    -0.00055191489998047