[Molden Format]
made by pyscf v[2.0.1]
[Atoms] (AU)
C   1   6     0.00000000000000     0.00000000000000     0.00000000000000
C   2   6     2.85272299873892     0.00000000000000     0.00000000000000
H   3   1     3.62066923017674     0.00000000000000     1.90331545357504
F   4   9     3.65943188126013    -2.04308229183900    -1.24074875274501
F   5   9     3.65943188126013     2.04308229183900    -1.24074875274501
F   6   9    -0.80670888252121     1.49550828705447     1.86469774548472
H   7   1    -0.76794623143782     0.65097222422570    -1.78853148675225
F   8   9    -0.80670888252121    -2.34423041954446     0.46714714892290
[GTO]
1 0
 s    8 1.00
                  6665  0.00069158396281299
                  1000  0.0053257961529341
                   228   0.027060721042034
                 64.71    0.10165684614077
                 21.06     0.2745748236174
                 7.495    0.44829431892377
                 2.797    0.28490261071525
                0.5215   0.015194859206082
 s    8 1.00
                  6665  -0.00029326965268655
                  1000  -0.0023180354739745
                   228  -0.011499786038565
                 64.71  -0.046826727009787
                 21.06   -0.12846616875047
                 7.495   -0.30126627246289
                 2.797   -0.25563070233011
                0.5215      1.093793361012
 s    1 1.00
                0.1596                   1
 p    3 1.00
                 9.439   0.056979251590039
                 2.002    0.31320721150073
                0.5456    0.76037674173753
 p    1 1.00
                0.1517                   1
 d    1 1.00
                  0.55                   1

2 0
 s    8 1.00
                  6665  0.00069158396281299
                  1000  0.0053257961529341
                   228   0.027060721042034
                 64.71    0.10165684614077
                 21.06     0.2745748236174
                 7.495    0.44829431892377
                 2.797    0.28490261071525
                0.5215   0.015194859206082
 s    8 1.00
                  6665  -0.00029326965268655
                  1000  -0.0023180354739745
                   228  -0.011499786038565
                 64.71  -0.046826727009787
                 21.06   -0.12846616875047
                 7.495   -0.30126627246289
                 2.797   -0.25563070233011
                0.5215      1.093793361012
 s    1 1.00
                0.1596                   1
 p    3 1.00
                 9.439   0.056979251590039
                 2.002    0.31320721150073
                0.5456    0.76037674173753
 p    1 1.00
                0.1517                   1
 d    1 1.00
                  0.55                   1

3 0
 s    3 1.00
                 13.01   0.033498726389998
                 1.962    0.23480080117413
                0.4446     0.8136829578829
 s    1 1.00
                 0.122                   1
 p    1 1.00
                 0.727                   1

4 0
 s    8 1.00
                 14710  0.00072067370873197
                  2207  0.0055504869689163
                 502.8   0.028254207662589
                 142.6    0.10639582836653
                 46.47    0.28668420124307
                  16.7    0.44843796582416
                 6.356    0.26464118141135
                 1.316   0.015326060993048
 s    8 1.00
                 14710  -0.00032119389049893
                  2207  -0.0025461915683188
                 502.8  -0.012643359507821
                 142.6   -0.05195749170489
                 46.47   -0.14344713812646
                  16.7   -0.33243762329603
                 6.356   -0.21865906750347
                 1.316     1.0955904138622
 s    1 1.00
                0.3897                   1
 p    3 1.00
                 22.67   0.064834021493887
                 4.977    0.34053535983101
                 1.347    0.73464640679382
 p    1 1.00
                0.3471                   1
 d    1 1.00
                  1.64                   1

5 0
 s    8 1.00
                 14710  0.00072067370873197
                  2207  0.0055504869689163
                 502.8   0.028254207662589
                 142.6    0.10639582836653
                 46.47    0.28668420124307
                  16.7    0.44843796582416
                 6.356    0.26464118141135
                 1.316   0.015326060993048
 s    8 1.00
                 14710  -0.00032119389049893
                  2207  -0.0025461915683188
                 502.8  -0.012643359507821
                 142.6   -0.05195749170489
                 46.47   -0.14344713812646
                  16.7   -0.33243762329603
                 6.356   -0.21865906750347
                 1.316     1.0955904138622
 s    1 1.00
                0.3897                   1
 p    3 1.00
                 22.67   0.064834021493887
                 4.977    0.34053535983101
                 1.347    0.73464640679382
 p    1 1.00
                0.3471                   1
 d    1 1.00
                  1.64                   1

6 0
 s    8 1.00
                 14710  0.00072067370873197
                  2207  0.0055504869689163
                 502.8   0.028254207662589
                 142.6    0.10639582836653
                 46.47    0.28668420124307
                  16.7    0.44843796582416
                 6.356    0.26464118141135
                 1.316   0.015326060993048
 s    8 1.00
                 14710  -0.00032119389049893
                  2207  -0.0025461915683188
                 502.8  -0.012643359507821
                 142.6   -0.05195749170489
                 46.47   -0.14344713812646
                  16.7   -0.33243762329603
                 6.356   -0.21865906750347
                 1.316     1.0955904138622
 s    1 1.00
                0.3897                   1
 p    3 1.00
                 22.67   0.064834021493887
                 4.977    0.34053535983101
                 1.347    0.73464640679382
 p    1 1.00
                0.3471                   1
 d    1 1.00
                  1.64                   1

7 0
 s    3 1.00
                 13.01   0.033498726389998
                 1.962    0.23480080117413
                0.4446     0.8136829578829
 s    1 1.00
                 0.122                   1
 p    1 1.00
                 0.727                   1

8 0
 s    8 1.00
                 14710  0.00072067370873197
                  2207  0.0055504869689163
                 502.8   0.028254207662589
                 142.6    0.10639582836653
                 46.47    0.28668420124307
                  16.7    0.44843796582416
                 6.356    0.26464118141135
                 1.316   0.015326060993048
 s    8 1.00
                 14710  -0.00032119389049893
                  2207  -0.0025461915683188
                 502.8  -0.012643359507821
                 142.6   -0.05195749170489
                 46.47   -0.14344713812646
                  16.7   -0.33243762329603
                 6.356   -0.21865906750347
                 1.316     1.0955904138622
 s    1 1.00
                0.3897                   1
 p    3 1.00
                 22.67   0.064834021493887
                 4.977    0.34053535983101
                 1.347    0.73464640679382
 p    1 1.00
                0.3471                   1
 d    1 1.00
                  1.64                   1

[5d]
[7f]
[9g]

[MO]
 Sym= A
 Ene=               0
 Spin= Alpha
 Occup=    1.00000
   1       1.0019108063676
   2    0.0042222839433338
   3    -0.0074072484894484
   4    -0.00058456689979283
   5    -0.00035248188495571
   6    0.0010664304882521
   7    -0.0015837171685853
   8    -0.00020468813327682
   9    0.00070718454913663
  10    -2.9834155522004e-05
  11    -0.00010849082322092
  12    0.00016050945698935
  13    -0.00030356373340058
  14    3.5846120347364e-05
  15    -0.00021366019656122
  16    6.9661904073608e-05
  17     0.003189445232111
  18    -0.00047447333119436
  19    8.0918270086817e-06
  20     7.90436202253e-06
  21    -0.0015492764655991
  22    5.3875392372104e-05
  23    -0.00043653493555121
  24    -4.3303814548924e-05
  25    9.0452620597863e-05
  26    -1.2752221442106e-05
  27    7.7949588366619e-05
  28    -4.1008389901293e-05
  29    -4.8790994173454e-05
  30    0.00043152318783489
  31    -9.7753462444457e-05
  32    3.6559118707953e-06
  33    -2.2730159459516e-05
  34    -1.0199929484777e-05
  35    -8.3223271627973e-06
  36    -0.00013607118760259
  37    -8.4070763247521e-06
  38    1.3605994381339e-05
  39    -4.9268515533494e-06
  40    -9.672965181172e-05
  41    -9.1267670379396e-05
  42    2.1941701239808e-05
  43    -1.9724249313266e-05
  44    -1.1519816748881e-05
  45    1.0991118643963e-05
  46    2.6073458233265e-05
  47    -1.2787841546521e-05
  48    3.4654668129241e-06
  49    1.3165379257409e-05
  50    -0.00021613381608674
  51    7.435210413703e-07
  52    -6.4017437965814e-06
  53    -1.1576673032431e-05
  54    -4.7982816336202e-05
  55    8.1737154987937e-05
  56    4.8485207721173e-05
  57    -1.6455057264552e-05
  58    -1.1717845124537e-05
  59    -1.4956889609715e-05
  60    2.0513165302188e-05
  61    8.170889118148e-06
  62    0.00016017319018738
  63    0.00068526499116646
  64    -0.00017977795800606
  65    7.2721525923617e-05
  66    -0.00023791260345494
  67    -0.00023771035537633
  68    -0.00014137534620001
  69    0.00059812207933969
  70    0.00065651835646241
  71    -3.9885147577937e-05
  72    5.3495694909681e-05
  73    -0.00014131704819012
  74    4.1084043482039e-05
  75    5.7889399239813e-05
  76    0.00096956747163683
  77    0.0015418903857104
  78    0.00022189779644299
  79    -3.0726053699699e-05
  80    6.1585361052099e-05
  81    0.00014749997866788
  82    0.00066030482487867
  83    -0.00010131495039219
  84    7.5394100620775e-05
  85    0.00033767297342517
  86    -2.9341342665917e-05
  87    -0.00013372313410297
  88    -0.00085570357508587
  89    0.00011149881038661
  90    8.7774679324396e-05
  91    4.0169710192461e-06
  92    3.5711866602939e-05
  93    0.0001117583374912
  94    -7.5077459113345e-05
 Sym= A
 Ene=               1
 Spin= Alpha
 Occup=    1.00000
   1    -0.00021365940550222
   2    6.9660963565301e-05
   3     0.003189444715488
   4    0.00047447416998924
   5    1.0306181447226e-05
   6    -4.6608335743281e-06
   7    0.0015492765149785
   8    -9.867741736382e-05
   9    0.00042863516462426
  10    -3.6503502761454e-05
  11    9.9023651063635e-05
  12    8.8219913412911e-06
  13    8.1875930499623e-05
  14    7.598761035775e-06
  15       1.0019108062899
  16     0.004222284437554
  17    -0.0074072474266839
  18    0.00058456586963404
  19    3.3516987220274e-05
  20    -0.0011226688026334
  21    0.0015837166249137
  22    4.9527865674497e-05
  23    -0.000734542429869
  24    -8.3197579042325e-05
  25    -0.0001142075425354
  26    -8.7861257973519e-06
  27    -0.00033437329030339
  28    3.4214748328557e-06
  29    0.0009695701780051
  30    0.0015418911208103
  31    -0.00022189794670448
  32    -7.8095996562167e-06
  33    -6.8380409771247e-05
  34    0.00014750000108458
  35    0.00066030384528058
  36    -0.00010131549514464
  37    -7.5393331800658e-05
  38    0.00030727105668012
  39    0.00014306354421991
  40    0.00013372364553435
  41    -0.00076596485569517
  42    -0.00039744199118708
  43    4.1171727125593e-05
  44    2.945273660913e-05
  45    -0.0001121369036375
  46    8.4852149081996e-05
  47    6.9175903846852e-05
  48    0.00016017319206404
  49    0.00068526514612757
  50    -0.00017977765420181
  51    -7.2729278557308e-05
  52    -0.00030485881406083
  53    0.00014200803853488
  54    0.00014136997362845
  55    0.00078659855361659
  56    -0.00041235279558293
  57    4.1618474436089e-05
  58    3.0470039781187e-05
  59    0.00011725386120378
  60    8.8140327625563e-05
  61    -7.2694786435205e-05
  62    3.4655030791416e-06
  63    1.3164333077923e-05
  64    -0.00021613484904612
  65    -7.4455255271236e-07
  66    -9.9749122869923e-06
  67    8.6916395744472e-06
  68    4.7982077133826e-05
  69    9.3390761567925e-05
  70    -1.7603748948666e-05
  71    -7.3198538821663e-06
  72    -1.3805726369205e-05
  73    1.4024807834782e-05
  74    2.5787427205507e-05
  75    -3.6703554563707e-06
  76    -4.8791330135138e-05
  77    0.00043152345474056
  78    9.7753490215167e-05
  79    -4.3387286389523e-06
  80    2.2609664119154e-05
  81    -1.0199922967684e-05
  82    -8.322632532998e-06
  83    -0.00013607153297083
  84    8.4076107685848e-06
  85    1.1100356196256e-05
  86    9.2820508557115e-06
  87    9.6729976264346e-05
  88    -7.8259052101996e-05
  89    -5.1834709886595e-05
  90    -2.5023110233073e-05
  91    -6.4514030568121e-06
  92    -5.8196573083112e-06
  93    2.3014170517894e-05
  94    1.5956662138396e-05
 Sym= A
 Ene=               2
 Spin= Alpha
 Occup=    1.00000
   1    5.1189067055527e-05
   2    5.6181503093627e-05
   3    -0.0014113366057834
   4    -0.0001278991766593
   5    -1.1939253165527e-05
   6    -8.0034204478484e-06
   7    -0.00076404276829403
   8    0.00026670163267086
   9    0.00020351538276699
  10    1.1851142631969e-06
  11    9.3352525556614e-06
  12    3.4535618871826e-05
  13    -8.2072138442017e-05
  14    1.200879842755e-05
  15    -0.0001853092411473
  16    0.00029614298007748
  17    0.0036643958549253
  18    0.0003971758567531
  19    -0.00082356974281885
  20    -0.0005136383990618
  21    -0.00022635606691749
  22    -0.0012174787235841
  23    -0.001122339451119
  24    -3.8353972241691e-05
  25    -6.9106230780593e-05
  26    9.4464019928036e-05
  27    -5.8028853134031e-05
  28    -7.3034463800155e-05
  29    -0.00022193088309931
  30    -6.1504966583317e-05
  31    -1.2001145924907e-05
  32    0.00013603882671434
  33    9.4028492632745e-05
  34       1.0010290588806
  35    0.00077818220347335
  36    -0.0058229897642475
  37    -0.00072770708845527
  38    0.0019513172295168
  39    0.0011871529275365
  40    0.00027114656714225
  41    -0.00054817209289482
  42    -0.00024014806996725
  43    1.3331113299179e-05
  44    4.1231888361248e-05
  45    -8.4670056503388e-05
  46    7.1614215564221e-05
  47    6.1382019126416e-05
  48    9.2832282563469e-05
  49    0.00015351375048666
  50    -0.00067695948635797
  51    4.2668288523556e-06
  52    3.5455960347151e-05
  53    -4.3803703578956e-05
  54    3.104984851179e-05
  55    0.00041887530291122
  56    0.00014812033619997
  57    1.8610114205967e-05
  58    -1.2511962014792e-05
  59    2.1883279915165e-06
  60    1.7171467787867e-05
  61    -1.1238361593564e-05
  62    -2.3831150547664e-05
  63    -4.1593038495787e-05
  64    0.0001075016641831
  65    -2.4221669655057e-05
  66    -8.3151704583745e-06
  67    -5.8334741319981e-06
  68    0.00019286234319841
  69    -2.4849742105649e-05
  70    -1.3021604202436e-05
  71    -6.8442686951901e-06
  72    1.4399448657633e-06
  73    7.7813650346827e-07
  74    -2.0417047389665e-06
  75    -1.3407810005883e-06
  76    0.00011789976296608
  77    -0.00012655482442023
  78    -3.0180322066664e-05
  79    -9.6388868524633e-06
  80    -1.1192309817162e-06
  81    -3.3359539978619e-06
  82    -8.6781771714959e-06
  83    8.8029636605139e-05
  84    -3.3351264967336e-06
  85    -1.3538005396482e-05
  86    2.6296498143623e-05
  87    -2.7997670133402e-05
  88    3.2042799520716e-05
  89    -5.5891255027889e-05
  90    1.3218413709559e-05
  91    7.2654570364825e-06
  92    4.6304957151723e-06
  93    -1.4256185871034e-05
  94    -3.2403344206009e-06
 Sym= A
 Ene=               3
 Spin= Alpha
 Occup=    1.00000
   1    -0.00018541144923341
   2    0.00029536964922986
   3    0.0036642239368618
   4    -0.00039682986604636
   5    -0.00094858907334417
   6    0.00020076638890584
   7    0.00022635984463089
   8    -0.001527894202861
   9    0.00063834545877675
  10    -7.8293499862356e-05
  11    -3.9954597076671e-05
  12    -3.2324204616626e-05
  13    -8.1079936466891e-05
  14    9.221941870211e-05
  15    5.1178938544634e-05
  16    5.6157957129089e-05
  17    -0.0014112659553138
  18    0.00012790333136236
  19    -1.3890339433889e-05
  20    3.4139637056073e-06
  21    0.00076399280304431
  22    0.00032023791105983
  23    -0.00010011545073725
  24    -9.9283333260055e-06
  25    4.6759075042959e-06
  26    -7.3309620341531e-07
  27    -8.8505395746561e-05
  28    -1.4525169746788e-05
  29    0.00011789515050225
  30    -0.00012650507713542
  31    3.0180307589823e-05
  32    -9.4360766446099e-06
  33    -2.2454805653433e-06
  34    -3.3340661329353e-06
  35    -8.6801171335954e-06
  36    8.7996517615316e-05
  37    3.3572960375009e-06
  38    -3.7021491089397e-06
  39    -2.9342317722844e-05
  40    2.8006387111075e-05
  41    1.0978854818321e-05
  42    6.3490081112514e-05
  43    9.7651136911692e-06
  44    7.9358543480185e-06
  45    -6.3255920536485e-06
  46    -1.6249105591804e-05
  47    5.6149919427664e-07
  48    -2.383312353756e-05
  49    -4.160535583486e-05
  50    0.00010746461899122
  51    2.4247776146116e-05
  52    -9.7950454860962e-06
  53     2.63367709178e-06
  54    -0.00019284502655391
  55    -2.7790594106097e-05
  56      3.7459593712e-06
  57    -5.8703203391297e-06
  58    1.8107183814022e-06
  59    3.8686786440886e-06
  60    -1.4781059462352e-06
  61    7.6862645356105e-07
  62    9.2838249332144e-05
  63    0.00015354298982259
  64    -0.00067696725544367
  65    -4.2579542562778e-06
  66    1.8287670316372e-05
  67    5.3249685778347e-05
  68    -3.1051715304707e-05
  69    0.00044422862643392
  70    4.0507179356515e-06
  71    1.2392904170591e-05
  72    -7.9177624134427e-06
  73    -1.7565608246824e-05
  74    1.3588788398896e-05
  75    1.4842359623517e-05
  76    -0.00022191842951592
  77    -6.1308437928913e-05
  78    1.2020485718193e-05
  79    0.00016002790436249
  80    -4.183753818467e-05
  81       1.0010290610869
  82    0.00078234950601413
  83    -0.0058180642488221
  84    0.00072694598185059
  85    0.0022366188545571
  86    -0.00044755821802799
  87    -0.00027164371446578
  88    -0.00059928548680416
  89    3.8584037449526e-05
  90    5.0910558741376e-05
  91    1.7760647611786e-05
  92    3.4450970651494e-05
  93    9.3350121388276e-05
  94    -7.1824771160491e-05
 Sym= A
 Ene=               4
 Spin= Alpha
 Occup=    1.00000
   1    -0.00017336235708615
   2    0.00030348442314999
   3    0.0034567460431696
   4    -0.00039470614078056
   5    0.00058203336942888
   6    0.00074849908266326
   7    0.00016597820304654
   8    0.00074739530818797
   9     0.001408371490951
  10    3.9068379607967e-05
  11    -7.156904804936e-05
  12    0.00010748797517707
  13    -2.0230412927042e-05
  14    -5.9904215003038e-05
  15    5.4833118214731e-05
  16    6.9115498492025e-05
  17    -0.001309577507102
  18    0.00014657071498728
  19    1.6315772500353e-05
  20    2.6861535728811e-05
  21    0.00062462635327809
  22    -4.2179332233479e-05
  23    -0.00033902131567704
  24    6.0630119265731e-05
  25    3.7682080292034e-05
  26    4.5375263166018e-05
  27    -5.5177848934926e-05
  28    -4.0330802213071e-06
  29    6.9696650488359e-05
  30    -6.6558890744293e-07
  31    6.1802004083719e-05
  32    -1.9181882010701e-05
  33    1.0437315807578e-05
  34    -2.5496068740697e-05
  35    -4.5620017841461e-05
  36    0.00013404311730587
  37    1.6274057615953e-05
  38    8.7758743460991e-06
  39    -2.0161651885146e-06
  40    -0.00014650316990627
  41    9.6900506998709e-06
  42    5.1744436817238e-05
  43    8.5016492502442e-06
  44    2.6301302688507e-06
  45    3.2605094406999e-06
  46    4.1225586571199e-06
  47    2.6961098026464e-06
  48    2.9738269700445e-05
  49    6.2193020524805e-05
  50    -5.6232750428895e-05
  51    -2.674343482445e-05
  52    -6.7850361818548e-06
  53    1.1831422288903e-06
  54    5.1835126041827e-05
  55    -1.7049704728529e-05
  56    5.9488411479354e-06
  57    7.4367537966474e-06
  58    9.7598778779427e-06
  59    -4.163201153383e-06
  60    -1.4523706551464e-05
  61    1.2929044480669e-06
  62       1.0010224200257
  63    0.00085331654297179
  64    -0.005665235395733
  65    0.00074637826990674
  66    -0.0013898268501188
  67    -0.0017119359119226
  68    -0.00026920393179803
  69    0.00041896046459923
  70    0.00045501692566183
  71    -4.5609148660129e-05
  72    6.0344878585337e-05
  73    -9.5511750866435e-05
  74    3.7525633521292e-05
  75    4.0316835167786e-05
  76    -0.00023713398072945
  77    -6.2683538252445e-05
  78    7.196920576251e-06
  79    -9.3421878075052e-05
  80    -0.00013802759022056
  81    8.8599795489105e-05
  82    0.00014625748803684
  83    -0.00063785560655802
  84    -1.6067487027292e-06
  85    -4.7550407046759e-05
  86    2.4283977491636e-05
  87    -3.2494584044605e-05
  88    -0.00032022729652159
  89    -0.00026643548772631
  90    1.4059889484999e-05
  91    -1.5216671510113e-05
  92    -1.398348038666e-05
  93    1.2316972551074e-05
  94    -6.4168725900396e-06
 Sym= A
 Ene=               5
 Spin= Alpha
 Occup=    1.00000
   1    5.4833740599075e-05
   2    6.9120526908612e-05
   3    -0.0013095727354965
   4    -0.0001465636091687
   5    2.4515345386613e-05
   6    -1.9658330626463e-05
   7    -0.00062461646021855
   8    -0.00015559209975538
   9    0.00030416075244824
  10    3.0322929995618e-05
  11    3.679044307202e-05
  12    -5.0776261704001e-05
  13    -7.2676169076088e-05
  14    -9.1002000395135e-06
  15    -0.00017336706702129
  16    0.00030344704755924
  17    0.0034567390505761
  18    0.00039469124980352
  19    0.00080287962773364
  20    -0.00050426675417617
  21    -0.00016597221784159
  22    0.0011840020240966
  23    -0.0010678231579745
  24    -2.5566990905772e-05
  25    -4.6767003696105e-05
  26    -9.758634835614e-05
  27    -5.7542422515682e-05
  28    8.0770869342959e-05
  29    -0.00023712844776643
  30    -6.2670432848895e-05
  31    -7.1978174965426e-06
  32    -0.00013499748932179
  33    9.7752575973001e-05
  34    8.8600461155555e-05
  35    0.00014625544391815
  36    -0.00063786840631235
  37    1.6076296731534e-06
  38    -3.6385918807702e-05
  39    -3.908534847246e-05
  40    3.2496058811977e-05
  41    -0.00039204966417237
  42    0.00014084068457374
  43    1.8129868115489e-05
  44    -1.2104696627382e-05
  45    -1.0735724682781e-06
  46    1.4667101361796e-05
  47    1.1234470085311e-05
  48       1.0010224202849
  49    0.00085353207511076
  50    -0.0056649814554195
  51    -0.00074623702931181
  52    -0.0018914849012755
  53    0.0011331575876931
  54    0.00026929998093805
  55    0.00054934508548701
  56    -0.0002844103735166
  57    1.1759442541453e-05
  58    4.2919756419908e-05
  59    8.6499092216551e-05
  60    7.0648018123749e-05
  61    -5.852759971757e-05
  62    2.9738401334223e-05
  63    6.2193717984866e-05
  64    -5.6235175679414e-05
  65    2.6744676408999e-05
  66    -5.9694756170369e-06
  67    -3.4341106729063e-06
  68    -5.1835701353185e-05
  69    -1.3984858351485e-05
  70    -1.1423043510192e-05
  71    9.920700921512e-06
  72    8.7290596425681e-06
  73    3.7172474939578e-06
  74    -1.3089561919743e-05
  75    -4.5532188974702e-06
  76    6.9697629782386e-05
  77    -6.5525897174628e-07
  78    -6.1801782597102e-05
  79    -1.4455567009579e-05
  80    -1.636824988441e-05
  81    -2.549600059644e-05
  82    -4.562105951141e-05
  83    0.00013403874175004
  84    -1.6276302985973e-05
  85    7.5546756564006e-06
  86    4.8960232939762e-06
  87    0.00014649997092693
  88    2.6801400433281e-05
  89    -4.5310884350322e-05
  90    4.7771371589996e-06
  91    1.5493882206066e-06
  92    -8.5553042887192e-06
  93    1.9723731311207e-06
  94    -3.4328798416433e-06
 Sym= A
 Ene=               6
 Spin= Alpha
 Occup=    1.00000
   1    0.0011784982457523
   2     0.014759901945841
   3     0.010699388713696
   4    -0.016255266510006
   5     0.023386480158977
   6     0.028482451284841
   7    -0.020369966956274
   8     0.023523764551032
   9     0.039759717404437
  10    0.0079462992106166
  11    -0.0097253264286426
  12    -0.031586548526769
  13     0.019464755086922
  14     0.015951016436769
  15    0.0018937446447919
  16      0.01486556831247
  17     0.015450972954463
  18    -0.023736929725708
  19    -0.0012188377342861
  20    -0.0047872760824701
  21    -0.019863439868783
  22    0.00062534023022805
  23    -0.015306579934081
  24    0.00040468156617181
  25    -7.9552349237219e-05
  26    0.0012533286282001
  27    0.00027517368331975
  28    0.00039351378300474
  29    -0.0034792288552063
  30    0.0045713184381362
  31    -0.00019466331557671
  32    -0.00075584871718086
  33    -6.2103421806994e-05
  34    0.0015330172060872
  35    0.0068026492609181
  36    -0.00031155423914554
  37    -0.011477027926086
  38    -0.00084835882484856
  39    0.0041389246913737
  40    -0.0022956622009117
  41      0.00112511106539
  42    0.0045439436185285
  43    0.00042893235941432
  44    0.00015615601942334
  45    0.00029677320384495
  46    -0.00090042655540489
  47    -0.00084139421975479
  48    -0.00011189618046858
  49    -0.0024817333892324
  50    -0.0051014484940125
  51    0.0068018398502391
  52    0.0029430307907428
  53    -0.001661871275772
  54    0.0064228429954432
  55    0.0026584481896004
  56    -0.00074978763620258
  57    -0.00022383255664082
  58    -0.0001588472813161
  59    0.00015093956570055
  60    0.00038916668785345
  61    0.00038158081322801
  62    0.0014439824395677
  63      -0.0143763962902
  64     -0.04891339273586
  65    -0.0062212324314886
  66     0.037912497545079
  67     0.025561513242277
  68    -0.0051839212881456
  69     0.035869524879949
  70     0.022584713527864
  71    2.5267064049126e-05
  72    -0.000406836402274
  73    -0.00051519138146355
  74    -0.00026603782805799
  75    0.00064745433438793
  76     0.022423337284909
  77      0.01583325953448
  78    -0.00069596265804875
  79    -0.00081455364516208
  80    -0.00062096820521034
  81    0.00037775294106685
  82    0.0024896827552879
  83    -0.00099496137991195
  84     -0.32471367564247
  85      0.21801999791415
  86      0.53689113781811
  87     -0.22513753975351
  88      0.14799986337231
  89      0.37033939710619
  90    -0.0037995630559709
  91    0.0058125781672942
  92     0.010216523456948
  93    -0.0070158278261756
  94    -0.005193589815605
 Sym= A
 Ene=               7
 Spin= Alpha
 Occup=    1.00000
   1    0.0014390159899355
   2     0.033015694714288
   3     0.084951606045435
   4     0.042567073352671
   5    0.0017287763319367
   6    -0.010540950124034
   7     0.018842061572908
   8    -0.019896334848421
   9    -0.010099687153838
  10    0.00038797369322713
  11    -0.0010760253850914
  12    0.0013830538372545
  13    0.0017856868571934
  14    0.00060939107268366
  15    0.0028014464146592
  16    0.0033719444235177
  17     -0.01134565094395
  18    0.00047938214622224
  19    0.0020059695462745
  20    -0.00030113345691794
  21     0.030194203405648
  22     0.019826052311357
  23     0.010160882851952
  24    -0.023662365228381
  25    -0.010235923541133
  26     0.017377090542819
  27     0.011454021704505
  28     0.025993553061599
  29    -0.051005543092929
  30    -0.046708769431165
  31    -0.0019304830883186
  32    -0.0030292475061274
  33    0.00068915487158416
  34    -0.00076954926678428
  35    -0.00020579950888007
  36    0.0097178612956205
  37    -0.0033580202499443
  38    0.0019074421639085
  39    -0.0013900900233949
  40    -0.0049348252553346
  41    0.0018589290370876
  42    0.00056621663933566
  43    -0.00058772403421658
  44    -0.00022159833717136
  45    0.00031308377173564
  46    0.00032718702755693
  47    0.00031385361472781
  48    0.0015791851091555
  49    -0.0048799699072199
  50    -0.018339007390909
  51      0.54225837438467
  52      0.02262685458217
  53       0.3911257911761
  54      0.37726455083597
  55     0.017421314108041
  56      0.26945881589474
  57     0.007066646919503
  58    0.0025400643411147
  59    -0.006312145843726
  60    -0.0036561309551147
  61    -0.0094428145893134
  62    -0.00021729870366312
  63    -0.0014819228896562
  64    -0.0013121426854159
  65    -0.0024903078340842
  66    0.0025864249255192
  67    0.0023255582123882
  68    -0.0038194919225962
  69    0.0053869771152511
  70    0.0021008550201671
  71    6.4670082233042e-05
  72    -0.00041833344303303
  73    -9.1873755075067e-05
  74    0.00032597413271665
  75    -0.00034415179732539
  76    0.0096289266972077
  77    -0.030355848114215
  78    -0.0028566014500324
  79    -0.00058079971754847
  80    0.0010873988886221
  81    0.0011440515013686
  82    -0.0023721476238782
  83    -0.021547701646791
  84    -0.0083006840200919
  85    -0.0093990879730129
  86    0.0041111093834253
  87    -0.0065023112181796
  88    -0.012169591624321
  89    0.0048737304204076
  90    -3.8675024516763e-05
  91    -0.00023827290746773
  92    -3.2886602569766e-05
  93    0.00067859834415657
  94    0.00061595852094829
 Sym= A
 Ene=               8
 Spin= Alpha
 Occup=    1.00000
   1    -0.0028013657630021
   2    -0.0033712080962976
   3     0.011346266240552
   4    0.00047896724657033
   5    -0.0017825052562431
   6    -0.00096844753780238
   7     0.030193972113051
   8    -0.022106566938424
   9    0.0027674880132855
  10     0.030344604262904
  11     0.018508548622251
  12    0.0038205195112467
  13    -0.007595696575219
  14     0.020924927376966
  15    -0.0014389385106982
  16    -0.033015206948055
  17    -0.084951498092783
  18     0.042566528181449
  19    0.0019807155672963
  20     -0.01049650101444
  21     0.018841927134408
  22      0.02215057112013
  23    -0.0026858628303865
  24    0.00063089991300675
  25    0.0012195371815107
  26    0.0018493260363897
  27    -0.0011973973382361
  28    0.00020461650618353
  29    -0.0096287795792664
  30     0.030355868291342
  31    -0.0028566173853015
  32    0.00017385960750793