[Molden Format]
made by pyscf v[2.0.1]
[Atoms] (AU)
C   1   6     0.00000000000000     0.00000000000000     0.00000000000000
C   2   6     2.85272299873892     0.00000000000000     0.00000000000000
H   3   1     3.62066923017674     0.00000000000000     1.90331545357504
F   4   9     3.65943188126013    -2.04308229183900    -1.24074875274501
F   5   9     3.65943188126013     2.04308229183900    -1.24074875274501
F   6   9    -0.80670888252121    -1.14898679038220     2.09606108551054
H   7   1    -0.76794623143782    -0.95165772678752    -1.64831953421149
F   8   9    -0.80670888252121     2.38973554312721     0.05297879367154
[GTO]
1 0
 s    8 1.00
                  6665  0.00069158396281299
                  1000  0.0053257961529341
                   228   0.027060721042034
                 64.71    0.10165684614077
                 21.06     0.2745748236174
                 7.495    0.44829431892377
                 2.797    0.28490261071525
                0.5215   0.015194859206082
 s    8 1.00
                  6665  -0.00029326965268655
                  1000  -0.0023180354739745
                   228  -0.011499786038565
                 64.71  -0.046826727009787
                 21.06   -0.12846616875047
                 7.495   -0.30126627246289
                 2.797   -0.25563070233011
                0.5215      1.093793361012
 s    1 1.00
                0.1596                   1
 p    3 1.00
                 9.439   0.056979251590039
                 2.002    0.31320721150073
                0.5456    0.76037674173753
 p    1 1.00
                0.1517                   1
 d    1 1.00
                  0.55                   1

2 0
 s    8 1.00
                  6665  0.00069158396281299
                  1000  0.0053257961529341
                   228   0.027060721042034
                 64.71    0.10165684614077
                 21.06     0.2745748236174
                 7.495    0.44829431892377
                 2.797    0.28490261071525
                0.5215   0.015194859206082
 s    8 1.00
                  6665  -0.00029326965268655
                  1000  -0.0023180354739745
                   228  -0.011499786038565
                 64.71  -0.046826727009787
                 21.06   -0.12846616875047
                 7.495   -0.30126627246289
                 2.797   -0.25563070233011
                0.5215      1.093793361012
 s    1 1.00
                0.1596                   1
 p    3 1.00
                 9.439   0.056979251590039
                 2.002    0.31320721150073
                0.5456    0.76037674173753
 p    1 1.00
                0.1517                   1
 d    1 1.00
                  0.55                   1

3 0
 s    3 1.00
                 13.01   0.033498726389998
                 1.962    0.23480080117413
                0.4446     0.8136829578829
 s    1 1.00
                 0.122                   1
 p    1 1.00
                 0.727                   1

4 0
 s    8 1.00
                 14710  0.00072067370873197
                  2207  0.0055504869689163
                 502.8   0.028254207662589
                 142.6    0.10639582836653
                 46.47    0.28668420124307
                  16.7    0.44843796582416
                 6.356    0.26464118141135
                 1.316   0.015326060993048
 s    8 1.00
                 14710  -0.00032119389049893
                  2207  -0.0025461915683188
                 502.8  -0.012643359507821
                 142.6   -0.05195749170489
                 46.47   -0.14344713812646
                  16.7   -0.33243762329603
                 6.356   -0.21865906750347
                 1.316     1.0955904138622
 s    1 1.00
                0.3897                   1
 p    3 1.00
                 22.67   0.064834021493887
                 4.977    0.34053535983101
                 1.347    0.73464640679382
 p    1 1.00
                0.3471                   1
 d    1 1.00
                  1.64                   1

5 0
 s    8 1.00
                 14710  0.00072067370873197
                  2207  0.0055504869689163
                 502.8   0.028254207662589
                 142.6    0.10639582836653
                 46.47    0.28668420124307
                  16.7    0.44843796582416
                 6.356    0.26464118141135
                 1.316   0.015326060993048
 s    8 1.00
                 14710  -0.00032119389049893
                  2207  -0.0025461915683188
                 502.8  -0.012643359507821
                 142.6   -0.05195749170489
                 46.47   -0.14344713812646
                  16.7   -0.33243762329603
                 6.356   -0.21865906750347
                 1.316     1.0955904138622
 s    1 1.00
                0.3897                   1
 p    3 1.00
                 22.67   0.064834021493887
                 4.977    0.34053535983101
                 1.347    0.73464640679382
 p    1 1.00
                0.3471                   1
 d    1 1.00
                  1.64                   1

6 0
 s    8 1.00
                 14710  0.00072067370873197
                  2207  0.0055504869689163
                 502.8   0.028254207662589
                 142.6    0.10639582836653
                 46.47    0.28668420124307
                  16.7    0.44843796582416
                 6.356    0.26464118141135
                 1.316   0.015326060993048
 s    8 1.00
                 14710  -0.00032119389049893
                  2207  -0.0025461915683188
                 502.8  -0.012643359507821
                 142.6   -0.05195749170489
                 46.47   -0.14344713812646
                  16.7   -0.33243762329603
                 6.356   -0.21865906750347
                 1.316     1.0955904138622
 s    1 1.00
                0.3897                   1
 p    3 1.00
                 22.67   0.064834021493887
                 4.977    0.34053535983101
                 1.347    0.73464640679382
 p    1 1.00
                0.3471                   1
 d    1 1.00
                  1.64                   1

7 0
 s    3 1.00
                 13.01   0.033498726389998
                 1.962    0.23480080117413
                0.4446     0.8136829578829
 s    1 1.00
                 0.122                   1
 p    1 1.00
                 0.727                   1

8 0
 s    8 1.00
                 14710  0.00072067370873197
                  2207  0.0055504869689163
                 502.8   0.028254207662589
                 142.6    0.10639582836653
                 46.47    0.28668420124307
                  16.7    0.44843796582416
                 6.356    0.26464118141135
                 1.316   0.015326060993048
 s    8 1.00
                 14710  -0.00032119389049893
                  2207  -0.0025461915683188
                 502.8  -0.012643359507821
                 142.6   -0.05195749170489
                 46.47   -0.14344713812646
                  16.7   -0.33243762329603
                 6.356   -0.21865906750347
                 1.316     1.0955904138622
 s    1 1.00
                0.3897                   1
 p    3 1.00
                 22.67   0.064834021493887
                 4.977    0.34053535983101
                 1.347    0.73464640679382
 p    1 1.00
                0.3471                   1
 d    1 1.00
                  1.64                   1

[5d]
[7f]
[9g]

[MO]
 Sym= A
 Ene=               0
 Spin= Alpha
 Occup=    1.00000
   1       1.0018618314729
   2    -0.00094712978997609
   3    -0.0095367866010785
   4    -0.00015505731243443
   5     0.001485429918395
   6     0.002677648956807
   7    -0.0016304966710254
   8    0.00073487583641316
   9     0.001414903620118
  10    1.4863399182623e-05
  11    -0.00010305409403401
  12    -0.00021606736755106
  13    -0.00024064908933025
  14    -4.9235980540692e-05
  15    -0.000201589895984
  16    -0.00086842775008992
  17    0.0027663407493825
  18    0.0010664300109416
  19    2.447534660841e-05
  20    0.00011597462080068
  21    -0.0011725547932611
  22    -0.00011899341041255
  23    -0.00035686256292541
  24    7.926525215868e-05
  25    -1.6258220118495e-05
  26    3.7269498358873e-06
  27    -0.00020331376171047
  28    1.6798487487042e-05
  29    2.4333560430241e-06
  30    0.00041850941600767
  31    -6.6229485791142e-05
  32    1.9938764733716e-06
  33    -3.1774657267105e-05
  34    1.1392056930813e-05
  35    0.00013235223023877
  36    -2.7762204865821e-05
  37    -0.00028445699006036
  38    0.00010823879407708
  39    -2.1134142642524e-06
  40    -0.00033387853531129
  41    -7.0003410542233e-06
  42    2.8490081075533e-05
  43    -9.6730194773822e-06
  44    -5.2077734996383e-06
  45    1.3375248570077e-05
  46    8.9877026044697e-06
  47    3.9952879623806e-06
  48    -2.3043966443867e-05
  49     2.32016438729e-05
  50    4.6414382137189e-05
  51    -0.00015836313363047
  52    -9.4335921511145e-05
  53    -1.0322429700933e-05
  54    -0.00032475358927999
  55    2.1712316966924e-05
  56    -5.1583567131361e-06
  57    -1.4832457615954e-05
  58    -4.1897348964758e-06
  59    -7.8435404358147e-06
  60    2.1697171512906e-05
  61    3.4213253419311e-08
  62    0.00014762616993523
  63    -8.714341409038e-05
  64    -0.00075574345072883
  65    -0.00044385130070439
  66    -0.00063855047990107
  67    0.0010105969674376
  68    -0.00043373926924358
  69    -0.0010549802711094
  70    0.0014029789397896
  71    -0.00017531161862729
  72    0.00011802581024819
  73    0.00020411707696019
  74    2.4238273218089e-05
  75    -7.2969281096473e-05
  76    -0.0030758338842258
  77    0.0008762361434666
  78    5.5155071352537e-05
  79    -0.00015703029110549
  80    -0.00028747646157141
  81    0.00012655503916779
  82    -0.00012719036627916
  83    -0.00062460274621763
  84    -0.00045030274677018
  85    0.0011923868013733
  86    -4.3974885677642e-05
  87    -0.00041947192629305
  88    0.0017023512132377
  89    -0.00022060328641346
  90    0.00015435285184201
  91    -3.9853942911515e-06
  92    -1.6920501589833e-05
  93    0.0002112503261068
  94    0.00013377413490285
 Sym= A
 Ene=               1
 Spin= Alpha
 Occup=    1.00000
   1    -0.00020156706445359
   2    -0.00086845047463539
   3    0.0027663607864041
   4    -0.0010663834187839
   5    -3.6776041864821e-05
   6    -0.00011272665840605
   7    0.0011725769309095
   8    7.5365845271633e-05
   9    0.00036854304586569
  10    9.6346356526982e-05
  11    -5.6713668711984e-06
  12    -3.04562083823e-05
  13    -0.00019344677335238
  14    -2.2679322376678e-05
  15       1.0018618308525
  16    -0.00094715393387288
  17    -0.0095367862864721
  18    0.00015502254414956
  19    -5.2438290118048e-05
  20    -0.0030615844765384
  21    0.0016305012073164
  22    -7.1049546675067e-05
  23    -0.0015927708678259
  24    -0.0001006682602265
  25    -0.00011386063010037
  26    1.4980918374821e-05
  27    -0.00030734140792619
  28    -8.8627303210556e-06
  29    -0.0030758428355008
  30    0.00087622240219387
  31    -5.5157006701443e-05
  32    7.7446048456636e-06
  33    0.00032747839740138
  34    0.00014762695116424
  35    -8.7158635324758e-05
  36    -0.00075576392963088
  37    0.00044361633601919
  38    -0.0010585120803951
  39    -0.00055582971721545
  40    0.00043357566970162
  41    -0.0016152767506815
  42    -0.0006874572252526
  43    3.8272997280036e-05
  44    6.5724779016859e-05
  45    -0.00022304762881699
  46     0.000147556270103
  47    0.00012220424905469
  48    0.00012655612107863
  49    -0.00012719334993757
  50    -0.00062459300355585
  51    0.00045068041826753
  52    0.0010545613048407
  53    -0.00055806449367243
  54    0.00041973314781212
  55    0.0015845315639464
  56    -0.00066009440649541
  57    3.8044786060542e-05
  58    6.3439852447469e-05
  59    0.00021569842418037
  60    0.0001440962811805
  61    -0.00011785104996229
  62    1.1393158358905e-05
  63    0.0001323390732389
  64    -2.7771185865418e-05
  65    0.00028443531024876
  66    9.4716084019362e-05
  67    -5.223582096419e-05
  68    0.00033386240628213
  69    -2.0356463170064e-05
  70    -2.1139408077944e-05
  71    2.0381968149454e-06
  72    -2.5113055719495e-06
  73    -1.0047476601978e-05
  74    1.5751411858444e-05
  75    -6.0650810177885e-06
  76    2.4189079628441e-06
  77    0.00041849937317785
  78    6.6232465176174e-05
  79    1.7613965371986e-05
  80    2.6518244631705e-05
  81    -2.3043503563197e-05
  82    2.3208551456949e-05
  83    4.6428661692564e-05
  84    0.00015834100206657
  85    -7.6541494726548e-05
  86    5.5935287410655e-05
  87    0.00032473452621135
  88    2.1374454224137e-05
  89    -6.5075130469276e-06
  90    -1.9849941706167e-05
  91    -3.6123733311897e-06
  92    2.1967428922757e-06
  93    1.8799542483587e-05
  94    -2.1243958228541e-06
 Sym= A
 Ene=               2
 Spin= Alpha
 Occup=    1.00000
   1    -5.158342329894e-05
   2    3.7718990987079e-05
   3    0.0040299521156539
   4    -0.00025344058752753
   5    0.00053996586162747
   6    5.552469604606e-06
   7    0.00038355464305943
   8    0.0015147332689607
   9    0.00032350544814891
  10    3.4815986358103e-05
  11    -1.7470366846725e-05
  12    -1.695694741846e-05
  13    6.863664969422e-05
  14    3.0567268743952e-05
  15    7.5428916688194e-05
  16    0.00010168267575364
  17    -0.0017571635639264
  18    0.00011982527836065
  19    1.8878136842709e-05
  20    -2.4063906906928e-06
  21    0.00092073735401894
  22    -0.00038463825312761
  23    1.7986822464812e-05
  24    -1.5249273579568e-05
  25    2.0698709035483e-06
  26    -1.5063214245702e-05
  27    -0.00010219676129392
  28    2.1367117994607e-05
  29    0.00014639533993002
  30    -0.00015152278671507
  31    6.3839849770754e-06
  32    2.6611370907567e-05
  33    -9.3212247171265e-06
  34    -2.4099821492615e-05
  35    -3.8796709007905e-05
  36    0.00013464873565132
  37    2.6193657476385e-05
  38    6.8469312207345e-06
  39    7.894577816653e-06
  40    -0.00018820940521393
  41    5.1713250412371e-05
  42    -8.6069317158303e-06
  43    -8.6099935262645e-06
  44    1.4676746857491e-06
  45    -4.8108408772543e-06
  46    -5.2712727670182e-06
  47    -2.1026603465762e-06
  48    -2.4199740156638e-05
  49    -4.32479221215e-05
  50    0.00021096276507705
  51    -2.8185314690283e-06
  52    2.0377049729596e-05
  53    -3.0290856986308e-05
  54    -2.0078832556858e-05
  55    -3.3136498740076e-05
  56    7.3321735869349e-05
  57    1.0896543890554e-05
  58    6.2621969900563e-06
  59    7.4817330267949e-06
  60    -1.6069659220711e-05
  61    1.9486818269954e-06
  62    0.00010374882221735
  63    0.00019253637063207
  64    -0.00074714831210657
  65    -5.6916793491323e-06
  66    3.3277974997828e-05
  67    3.8428121459921e-05
  68    -5.887746630237e-05
  69    -0.00041189596257878
  70    0.00010347641702958
  71    5.2720426863384e-06
  72    -4.107481609994e-06
  73    2.8368261903766e-05
  74    1.3458251907572e-05
  75    -1.7419438263689e-05
  76    -0.0002392715929729
  77    -0.00013939458482591
  78    -9.0268510961748e-07
  79    -0.00017948815446245
  80    -3.6290753736415e-05
  81       1.0010181387309
  82    -0.004191112917548
  83    -0.011403274164872
  84    0.0010672338441232
  85    -0.0029384443910527
  86    -7.6567404094104e-05
  87    -1.386670424788e-05
  88    7.5505064348101e-05
  89    -8.4266524727058e-05
  90    6.7123340868369e-05
  91    3.519157835968e-06
  92    -9.2674752365351e-07
  93    0.00011408839079867
  94    8.5641503241624e-05
 Sym= A
 Ene=               3
 Spin= Alpha
 Occup=    1.00000
   1    7.5414903655948e-05
   2    0.00010157802570919
   3    -0.0017573167463034
   4    -0.00011992944596178
   5    1.7517982535515e-05
   6    -7.3366549349116e-06
   7    -0.00092081399537881
   8    -0.00034198055957292
   9    0.00017677948585382
  10    1.2971762217614e-06
  11    1.2493853052373e-05
  12    -4.8164709762901e-05
  13    -9.2642966932983e-05
  14    -1.7509333279899e-05
  15    -5.1679026379977e-05
  16    3.7358237252337e-05
  17    0.0040299212375523
  18    0.00025323844407224
  19    0.00046431679176379
  20    -0.0002746102719636
  21    -0.00038367739523524
  22    0.0011498848954714
  23    -0.0010377096328279
  24    -5.6970203951573e-06
  25    1.5892974658964e-07
  26    6.4220932033607e-05
  27    4.5151997696283e-05
  28    -3.5299443811275e-05
  29    -0.00023905608892905
  30    -0.00013903632052691
  31    8.9593382945603e-07
  32    -0.00013730043277566
  33    0.00012117493094456
  34    0.00010375656286043
  35    0.0001925423796613
  36    -0.00074726124653631
  37    5.7478947764318e-06
  38    9.6978968468893e-06
  39    -4.9935276220868e-05
  40    5.8941800848112e-05
  41    -0.00040840114616296
  42    0.00011631444168368
  43    2.1663320572571e-05
  44    -1.2269907066595e-05
  45    -4.4029830629776e-06
  46    2.2920080112636e-05
  47    1.3029365761699e-05
  48       1.0010182084533
  49    -0.0041868792580326
  50    -0.011398323498921
  51    -0.0010683093128824
  52    -0.0025052563242496
  53    0.0015321935745481
  54    1.3111422208443e-05
  55    0.00010834718325688
  56    3.2938424322565e-05
  57    1.6521965027093e-05
  58    4.5881894982288e-05
  59    0.0001002744626896
  60    8.491849046688e-05
  61    -7.2392927642591e-05
  62    -2.4105386124667e-05
  63    -3.8814038076445e-05
  64    0.00013466794826191
  65    -2.6220926710886e-05
  66    1.9802006831943e-06
  67    -1.02611971894e-05
  68    0.00018820646387226
  69    4.9077432658359e-05
  70    -1.8426345763225e-05
  71    -7.8473003166022e-06
  72    2.2078386855757e-07
  73    -6.3350088264973e-06
  74    -4.8304202495967e-06
  75    2.553981591486e-06
  76    0.00014637629212015
  77    -0.00015145431378658
  78    -6.389228319383e-06
  79    2.7701051521432e-05
  80    -5.2279068559413e-06
  81    -2.4193560324628e-05
  82    -4.3260955762218e-05
  83    0.00021089637765847
  84    2.6615328008848e-06
  85    3.2746673545697e-05
  86    1.6001937987213e-05
  87    1.9993487433042e-05
  88    -6.5361286076524e-05
  89    -4.6982685903013e-05
  90    1.590227491961e-05
  91    6.3933689904331e-06
  92    -2.5263314460013e-06
  93    -1.317801314176e-05
  94    1.4496599878014e-06
 Sym= A
 Ene=               4
 Spin= Alpha
 Occup=    1.00000
   1    -3.4902179337967e-05
   2    6.6082001197673e-05
   3    0.0037887198096462
   4    -0.00025542184689606
   5    -0.00025698830707728
   6    0.00046890179735645
   7    0.00032127965227676
   8    -0.00045803026063734
   9    0.0013887546501886
  10    -4.4802382749789e-05
  11    3.3183272423095e-05
  12    5.5508587006897e-05
  13    1.4286636060236e-05
  14    -9.6418778711509e-06
  15    7.9366880298035e-05
  16    0.00012085129462351
  17    -0.0015862383244386
  18    0.00014691794968894
  19    -1.638004827963e-05
  20    4.8655748534435e-05
  21    0.00078107917434038
  22    1.5563846653991e-05
  23    -0.00029763776653932
  24    9.5584041883399e-05
  25    5.0071752122058e-05
  26    -5.2580997388986e-05
  27    -5.0958655768686e-05
  28    8.3115505021561e-06
  29    7.8152858162414e-05
  30    -5.4804853600134e-05
  31    5.8297225890565e-05
  32    2.1228760897245e-05
  33    1.6863724563429e-05
  34    1.7796049410501e-05
  35    4.1608874554443e-05
  36    1.9416566771973e-05
  37    -2.6022381988745e-05
  38    6.0253836653981e-06
  39    7.5081157352798e-06
  40    4.6368737972947e-06
  41    3.1840001931174e-05
  42    7.7109693209031e-06
  43    7.6199615593491e-06
  44    6.683767948273e-06
  45    8.0217331423873e-06
  46    -1.1704960357468e-05
  47    -2.9529657312132e-06
  48    -2.4055098097416e-05
  49    -4.0495949062938e-05
  50    0.00015204191720421
  51    1.2953070862495e-05
  52    -7.6667169071003e-06
  53    -6.0462649803017e-06
  54    -0.00012995802798981
  55    -2.0696129393645e-05
  56    5.455063664069e-05
  57    1.229665097138e-05
  58    1.8579269061336e-06
  59    -5.4666242679737e-06
  60    3.1073462483944e-06
  61    -2.6929731963594e-06
  62       1.0010103716175
  63    -0.0041928257137178
  64    -0.011318487495176
  65    0.0011079350083243
  66    0.0014578490838956
  67    -0.0025229877227739
  68    -8.2199690489208e-06
  69    -2.1627862298311e-05
  70    3.9739998373143e-05
  71    -8.4968700995665e-05
  72    7.4333313574358e-05
  73    9.727213075796e-05
  74    2.4704260491693e-05
  75    -3.3770547953869e-05
  76    -0.00025046078749896
  77    -0.00013663738706285
  78    -5.2417302718285e-06
  79    5.3642387267409e-05
  80    -0.00017466130374632
  81     9.95854409026e-05
  82    0.00018337190430315
  83    -0.00071064018177706
  84    -3.2589101970777e-06
  85    1.9416944550648e-05
  86    4.1505493899411e-05
  87    -6.3913991321143e-05
  88    0.00027597622033931
  89    -0.00028327086791767
  90    1.1242250471872e-05
  91    -1.6713054000522e-05
  92    2.2582397814418e-05
  93    1.3772662035932e-05
  94    5.2088906842586e-06
 Sym= A
 Ene=               5
 Spin= Alpha
 Occup=    1.00000
   1    7.9380218390784e-05
   2    0.00012099131089852
   3    -0.0015859739473634
   4    -0.00014677111785533
   5    -3.8516669724548e-05
   6    -3.3982335458762e-05
   7    -0.00078106927651669
   8    0.00016237683046751
   9    0.00024990294141283
  10    3.1341039870819e-05
  11    4.7508463048854e-05
  12    7.5900623021562e-05
  13    -8.8052494175933e-05
  14    1.7831741593097e-05
  15    -3.4863550599324e-05
  16    6.6271491378244e-05
  17    0.0037888056570027
  18    0.00025558533207171
  19    -0.00045707158201925
  20    -0.00027773556362815
  21    -0.00032115868088872
  22    -0.0010910166235716
  23    -0.00097367528913184
  24    1.0514291910882e-05
  25    2.3847166885527e-05
  26    -5.520523307116e-05
  27    4.6341277936225e-05
  28    2.4810836432056e-05
  29    -0.00025056446605065
  30    -0.00013679098888188
  31    5.2427176477987e-06
  32    0.00013378864384193
  33    0.00012443871454415
  34       1.0010103542774
  35    -0.0041942038408338
  36    -0.011320136721904
  37    -0.0011053605613231
  38    0.0025255930130756
  39    0.0014567584655704
  40    1.0017737210897e-05
  41    -3.7533048795372e-05
  42    -2.3121952394265e-05
  43    1.4503393481643e-05
  44    4.7513159948022e-05
  45    -0.00010163786333775
  46    8.2085288987917e-05
  47    6.6445840362769e-05
  48    9.9585494533855e-05
  49    0.00018333341989113
  50    -0.00071073506377263
  51    3.0236995174475e-06
  52    -3.8096069471478e-06
  53    -4.5728064641086e-05
  54    6.3745497354673e-05
  55    0.00038075662841631
  56    0.00010727610611746
  57    2.0977059358533e-05
  58    -1.1873003128355e-05
  59    3.1043369119455e-06
  60    1.9395884114819e-05
  61    -1.2865990551814e-05
  62    1.7789548572993e-05
  63    4.1610014196136e-05
  64    1.944896655468e-05
  65    2.6051898606331e-05
  66    1.4537599077409e-06
  67    -9.5282684982678e-06
  68    -4.6099408850603e-06
  69    2.3700810805828e-05
  70    -2.260507270078e-05
  71    1.3313619701482e-05
  72    4.3092609217795e-06
  73    -3.3641099587147e-06
  74    -8.4166979318171e-06
  75    5.9011567641474e-06
  76    7.8192009543561e-05
  77    -5.4963153832629e-05
  78    -5.8313144619185e-05
  79    9.9578486347415e-06
  80    -2.521259885289e-05
  81    -2.4049406176042e-05
  82    -4.0501642422076e-05
  83    0.0001519452685108
  84    -1.2886402413299e-05
  85    -3.5628116660391e-06
  86    8.9918199417492e-06
  87    0.00013000066070128
  88    -4.5132406287497e-05
  89    -3.694094835625e-05
  90    2.9123689907498e-06
  91    2.6122081525684e-07
  92    1.3303600134567e-05
  93    -2.3064605317948e-06
  94    3.2570423321575e-06
 Sym= A
 Ene=               6
 Spin= Alpha
 Occup=    1.00000
   1    -0.0025245729678656
   2    -0.002055479469816
   3      0.02633908609375
   4     0.008144405795182
   5    -0.0022409648648439
   6     0.019212304587699
   7     0.037102920153875
   8    -0.015885227666871
   9     0.032368072447577
  10    0.0032161523295115
  11    -0.0063050281960046
  12     0.029588651334543
  13    -0.017648366641184
  14     0.023122639536413
  15    -0.0013372173553247
  16    -0.020758784418261
  17    -0.066292368865179
  18     0.031739707938505
  19    0.0012676662599533
  20    -0.0015372550275125
  21     0.031886390022372
  22      0.02432670299353
  23    -0.0081675967844262
  24    -0.0003353401212149
  25    -0.00052272893352122
  26    0.00085098468818104
  27    -0.0017923251551436
  28    0.0012278841429923
  29    -0.0004412158259354
  30     0.014692524280261
  31    0.0013387641355669
  32    -0.0011458163112002
  33    -0.0004841295505065
  34    -0.0012393171208394
  35    -0.00054115424524367
  36     0.014015198572201
  37    -0.004033103737046
  38    0.0039589211260148
  39    0.0038242694146451
  40    -0.0063031282172976
  41    0.0047686785568276
  42    0.0069154572164567
  43    8.6871741911309e-05
  44    0.00031916514391598
  45    0.00016099525513393
  46    -0.00022831568694555
  47    0.00039273372358389
  48    0.00038330065823221
  49    -0.0016315380065792
  50    -0.0092487314771434
  51     0.002248266402135
  52    -0.0031502293345987
  53    -0.0049638912544234
  54    -0.0023481692992173
  55    -0.0003111873071247
  56    -0.0036893526072978
  57    -0.00012312471324067
  58    -0.00026219177019978
  59    0.00038870016705456
  60    0.00033431825847224
  61    -0.00078742404593533
  62    0.0013878977075983
  63    -0.0032374446272567
  64    -0.024304933231796
  65    -0.0044569507062733
  66    -0.010076759805035
  67    0.0053897958944704
  68    -0.008369355349421
  69    -0.0091592667686433
  70    0.0069917477768507
  71    4.0251712917216e-05
  72    -0.00014698393312264
  73    0.00050276629034821
  74    -0.00060772377161507
  75    0.00034225604677596
  76     0.043059664339471
  77     0.049393365571116
  78    -0.0023059972459356
  79    0.0026918861458383
  80    -0.0017441912900065
  81    -0.001206646943147
  82    -0.0016811354990414
  83    0.0090896182233111
  84      0.44315525845166
  85      0.14088891171706
  86      0.47911102654793
  87      0.30675716760551
  88     0.095179953885476
  89      0.33110587600477
  90    -0.00031510716179737
  91    0.0037594018840553
  92    -0.0098484556219194
  93     0.006015797490605
  94     -0.00799874919939
 Sym= A
 Ene=               7
 Spin= Alpha
 Occup=    1.00000
   1    0.00090487567046357
   2     0.025872461803788
   3     0.082267131314962
   4     0.032862261188212
   5    -0.0023965945765895
   6    -0.0081386714728948
   7     0.014795976300221
   8     0.013495211399139
   9    -0.009405803566875
  10    0.00043631378736027
  11    -0.0010069023135634
  12    -0.0011191707087976
  13    0.00084449239660394
  14    -0.00088628901334343
  15    0.0026698385884169
  16    0.0044841641576883
  17    -0.011768203800437
  18     0.010794389496932
  19    -0.0056418167714528
  20     0.010518198415942
  21     0.032336781099412
  22    -0.021367429703723
  23     0.015594107012029
  24     -0.02439455321082
  25    -0.0089749112006762
  26     -0.01804737174817
  27    0.0088480144465184
  28    -0.025350378562538
  29    -0.040514700020514
  30    -0.044029978508693
  31    -0.0021692423661409
  32    0.0030037674239127
  33    -0.00022289266706268
  34    0.0013996134488001
  35    -0.0062163033077527
  36    -0.018918587452284
  37      0.51613212877024
  38    -0.049529778567224
  39       0.4217344596588
  40      0.35841054444882
  41    -0.035862084713555
  42      0.29023945810843
  43    0.0077654500478312
  44     0.002011144061852
  45    0.0066389173653781
  46    -0.0030174146081958
  47    0.0092739849970212
  48    -0.00092472115301243
  49    0.00080898269714645
  50     0.013668964588167
  51    -0.0042095375758968
  52    -0.0042122791772887
  53    -0.0015527919242052
  54    -0.0065741980326382
  55    -0.0044668200859204
  56    0.00011519091672253
  57    -0.00048647824560573
  58    -0.00012243790351786
  59    -0.00043287194047551
  60    0.00026270740616626
  61    -0.00041506372417017
  62    0.00010551156522641
  63    -0.0011245687593225
  64    -0.0047524918691934
  65    -0.0029270138949167
  66    -0.001530968991583
  67    0.0039125603799537
  68    -0.0037108083240201
  69    -0.0051494741642289
  70    0.0045187802044886
  71    -2.05868291772e-05
  72    -0.00038072104302183
  73    0.00021786679975995
  74    0.00026119918004001
  75    0.0001610650214639
  76    0.0078650446229677
  77    -0.029848667878699
  78    -0.003737261417015
  79    0.00082609765551234
  80    0.0012298554019482
  81    0.00083144418973057
  82    -0.0019921733932024
  83    -0.018235374155566
  84    -0.0066940956069849
  85     0.006819097228172
  86    0.0020631571369216
  87    -0.0041422765226635
  88     0.010442604267558
  89    0.0014531156311824
  90    -9.9366489824331e-05
  91    -0.00010451731412948
  92    0.00014517987356107
  93    0.00057267003944888
  94    -0.00057331292327669
 Sym= A
 Ene=               8
 Spin= Alpha
 Occup=    1.00000
   1    -0.0026705142585663
   2    -0.0044886810872796
   3     0.011766539785125
   4     0.010797014547381
   5     0.010150354281501
   6     0.006281529834119
   7     0.032335956843149
   8     0.026303427111836
   9    0.0028219440329186
  10     0.030697775362815
  11     0.020447308112312
  12    0.0054415902464593
  13    -0.0052084072470557
  14    -0.017466617579326
  15    -0.00090479602521842
  16    -0.025871626170484
  17    -0.082265821025984
  18     0.032860915914919
  19    -0.0019937497234696
  20    -0.008246548727464
  21     0.014794206034216
  22    -0.016390076024073
  23    -0.0013996065509202
  24    0.00074941075956413
  25    0.0013155233994122
  26    -0.0012522950992744
  27    -0.00015979975013768
  28    -0.00026427390094127
  29    -0.0078646533968204
  30     0.029850345067626
  31    -0.0037373266709646
  32    -0.00010048904974484
  33    0.0014780589930507