[Molden Format]
made by pyscf v[2.0.1]
[Atoms] (AU)
C   1   6     0.00000000000000     0.00000000000000     0.00000000000000
C   2   6     2.85272299873892     0.00000000000000     0.00000000000000
H   3   1     3.62066923017674     0.00000000000000     1.90331545357504
F   4   9     3.65943188126013    -2.04308229183900    -1.24074875274501
F   5   9     3.65943188126013     2.04308229183900    -1.24074875274501
F   6   9    -0.80670888252121     0.36279929541697     2.36262976149657
H   7   1    -0.76794623143782     1.45802422671364    -1.22342759088295
F   8   9    -0.80670888252121    -2.26373667011121    -0.76755391149953
[GTO]
1 0
 s    8 1.00
                  6665  0.00069158396281299
                  1000  0.0053257961529341
                   228   0.027060721042034
                 64.71    0.10165684614077
                 21.06     0.2745748236174
                 7.495    0.44829431892377
                 2.797    0.28490261071525
                0.5215   0.015194859206082
 s    8 1.00
                  6665  -0.00029326965268655
                  1000  -0.0023180354739745
                   228  -0.011499786038565
                 64.71  -0.046826727009787
                 21.06   -0.12846616875047
                 7.495   -0.30126627246289
                 2.797   -0.25563070233011
                0.5215      1.093793361012
 s    1 1.00
                0.1596                   1
 p    3 1.00
                 9.439   0.056979251590039
                 2.002    0.31320721150073
                0.5456    0.76037674173753
 p    1 1.00
                0.1517                   1
 d    1 1.00
                  0.55                   1

2 0
 s    8 1.00
                  6665  0.00069158396281299
                  1000  0.0053257961529341
                   228   0.027060721042034
                 64.71    0.10165684614077
                 21.06     0.2745748236174
                 7.495    0.44829431892377
                 2.797    0.28490261071525
                0.5215   0.015194859206082
 s    8 1.00
                  6665  -0.00029326965268655
                  1000  -0.0023180354739745
                   228  -0.011499786038565
                 64.71  -0.046826727009787
                 21.06   -0.12846616875047
                 7.495   -0.30126627246289
                 2.797   -0.25563070233011
                0.5215      1.093793361012
 s    1 1.00
                0.1596                   1
 p    3 1.00
                 9.439   0.056979251590039
                 2.002    0.31320721150073
                0.5456    0.76037674173753
 p    1 1.00
                0.1517                   1
 d    1 1.00
                  0.55                   1

3 0
 s    3 1.00
                 13.01   0.033498726389998
                 1.962    0.23480080117413
                0.4446     0.8136829578829
 s    1 1.00
                 0.122                   1
 p    1 1.00
                 0.727                   1

4 0
 s    8 1.00
                 14710  0.00072067370873197
                  2207  0.0055504869689163
                 502.8   0.028254207662589
                 142.6    0.10639582836653
                 46.47    0.28668420124307
                  16.7    0.44843796582416
                 6.356    0.26464118141135
                 1.316   0.015326060993048
 s    8 1.00
                 14710  -0.00032119389049893
                  2207  -0.0025461915683188
                 502.8  -0.012643359507821
                 142.6   -0.05195749170489
                 46.47   -0.14344713812646
                  16.7   -0.33243762329603
                 6.356   -0.21865906750347
                 1.316     1.0955904138622
 s    1 1.00
                0.3897                   1
 p    3 1.00
                 22.67   0.064834021493887
                 4.977    0.34053535983101
                 1.347    0.73464640679382
 p    1 1.00
                0.3471                   1
 d    1 1.00
                  1.64                   1

5 0
 s    8 1.00
                 14710  0.00072067370873197
                  2207  0.0055504869689163
                 502.8   0.028254207662589
                 142.6    0.10639582836653
                 46.47    0.28668420124307
                  16.7    0.44843796582416
                 6.356    0.26464118141135
                 1.316   0.015326060993048
 s    8 1.00
                 14710  -0.00032119389049893
                  2207  -0.0025461915683188
                 502.8  -0.012643359507821
                 142.6   -0.05195749170489
                 46.47   -0.14344713812646
                  16.7   -0.33243762329603
                 6.356   -0.21865906750347
                 1.316     1.0955904138622
 s    1 1.00
                0.3897                   1
 p    3 1.00
                 22.67   0.064834021493887
                 4.977    0.34053535983101
                 1.347    0.73464640679382
 p    1 1.00
                0.3471                   1
 d    1 1.00
                  1.64                   1

6 0
 s    8 1.00
                 14710  0.00072067370873197
                  2207  0.0055504869689163
                 502.8   0.028254207662589
                 142.6    0.10639582836653
                 46.47    0.28668420124307
                  16.7    0.44843796582416
                 6.356    0.26464118141135
                 1.316   0.015326060993048
 s    8 1.00
                 14710  -0.00032119389049893
                  2207  -0.0025461915683188
                 502.8  -0.012643359507821
                 142.6   -0.05195749170489
                 46.47   -0.14344713812646
                  16.7   -0.33243762329603
                 6.356   -0.21865906750347
                 1.316     1.0955904138622
 s    1 1.00
                0.3897                   1
 p    3 1.00
                 22.67   0.064834021493887
                 4.977    0.34053535983101
                 1.347    0.73464640679382
 p    1 1.00
                0.3471                   1
 d    1 1.00
                  1.64                   1

7 0
 s    3 1.00
                 13.01   0.033498726389998
                 1.962    0.23480080117413
                0.4446     0.8136829578829
 s    1 1.00
                 0.122                   1
 p    1 1.00
                 0.727                   1

8 0
 s    8 1.00
                 14710  0.00072067370873197
                  2207  0.0055504869689163
                 502.8   0.028254207662589
                 142.6    0.10639582836653
                 46.47    0.28668420124307
                  16.7    0.44843796582416
                 6.356    0.26464118141135
                 1.316   0.015326060993048
 s    8 1.00
                 14710  -0.00032119389049893
                  2207  -0.0025461915683188
                 502.8  -0.012643359507821
                 142.6   -0.05195749170489
                 46.47   -0.14344713812646
                  16.7   -0.33243762329603
                 6.356   -0.21865906750347
                 1.316     1.0955904138622
 s    1 1.00
                0.3897                   1
 p    3 1.00
                 22.67   0.064834021493887
                 4.977    0.34053535983101
                 1.347    0.73464640679382
 p    1 1.00
                0.3471                   1
 d    1 1.00
                  1.64                   1

[5d]
[7f]
[9g]

[MO]
 Sym= A
 Ene=               0
 Spin= Alpha
 Occup=    1.00000
   1    -0.00022803521937084
   2    4.1668327484508e-05
   3    0.0032630453738364
   4    0.00047131053785335
   5    1.4064029963144e-05
   6    1.0812912723383e-05
   7    0.0015955015230165
   8    -0.00024740537154716
   9    0.0003538331563938
  10    -2.3860003028286e-05
  11     0.000107703690474
  12    1.7344681682981e-05
  13    7.7704835896108e-05
  14    1.2499608693133e-05
  15       1.0019136790799
  16    0.0042333870267925
  17    -0.0074665430940622
  18    0.00056577288652397
  19    5.622060303784e-05
  20    -0.0011203961698164
  21     0.001583348217777
  22    9.8606746678438e-05
  23    -0.00070047254005566
  24    -8.2668998453004e-05
  25    -0.00011334194923028
  26    -1.0532390353295e-05
  27    -0.00033296556402782
  28    -4.1600274499488e-07
  29    0.00096198272555444
  30    0.0015501703533002
  31    -0.00021954670351204
  32    -1.1704496185643e-05
  33    -7.3602737043693e-05
  34    0.00014313293937632
  35    0.00065129540842756
  36    -6.5089955643183e-05
  37    -8.0476417124844e-05
  38    0.00030628530035116
  39    0.00014326918907075
  40    0.00014976107094513
  41    -0.00075063408012119
  42    -0.00039317379501427
  43    4.1994610845587e-05
  44    2.9686974079355e-05
  45    -0.00011055977844254
  46    8.2233211063441e-05
  47    6.8853864191574e-05
  48    0.00016220465437288
  49    0.00068948487952734
  50    -0.00018925354596159
  51    -7.3899260710842e-05
  52    -0.00030157304705788
  53    0.00014376714365502
  54    0.00015088847993591
  55    0.00077496956985367
  56    -0.00042572643239438
  57    4.1339285926052e-05
  58    3.1608124979673e-05
  59    0.00011823272287089
  60    8.718172951366e-05
  61    -7.3756754575018e-05
  62    1.361621322361e-05
  63    2.9829912695337e-05
  64    -0.00027542758390377
  65    -2.9641678084373e-06
  66    -9.5592305346886e-06
  67    8.6666531059538e-06
  68    -1.1722779236835e-06
  69    5.6257195914817e-05
  70    1.9352506107253e-05
  71    3.0727224925338e-06
  72    -1.1036198590324e-05
  73    1.7538422626122e-06
  74    2.7071969386784e-05
  75    1.4360388991297e-06
  76    -3.6300113891343e-05
  77    0.00041599635038953
  78    9.680017503577e-05
  79    -2.4011086642328e-05
  80    2.5978255788948e-05
  81    -9.0879351245674e-06
  82    -4.267667220858e-06
  83    -0.00013940620842675
  84    1.8960327897864e-05
  85    6.7615643841135e-06
  86    1.2622228828841e-05
  87    8.2342372788123e-05
  88    -5.4361773185538e-05
  89    -7.2338972969045e-05
  90    -2.1999501682272e-05
  91    4.9287703158649e-06
  92    4.1832294872339e-06
  93    2.7716725304287e-05
  94    1.6950477724236e-05
 Sym= A
 Ene=               1
 Spin= Alpha
 Occup=    1.00000
   1       1.0019136790458
   2    0.0042333862075502
   3    -0.0074665466853269
   4    -0.00056578020733718
   5    -0.00082213559068509
   6    0.00076324428795966
   7    -0.001583351045174
   8    -0.00047321000857909
   9    0.00052579173863948
  10    0.00016829688644291
  11    -7.2536094722428e-05
  12    0.00023263031817263
  13    -0.00018807088914485
  14    8.709269288289e-05
  15    -0.00022803642544502
  16    4.166537286128e-05
  17    0.0032630446496421
  18    -0.00047130635591892
  19    1.7321751760972e-05
  20    3.8243204940242e-06
  21    -0.0015955014779848
  22    0.00011202259862374
  23    -0.00041696264156307
  24    -5.7139727173295e-05
  25    5.965572363044e-05
  26    -1.4900589695663e-05
  27    5.8489736361286e-05
  28    -9.0540366874856e-05
  29    -3.6298375200961e-05
  30    0.00041599801479037
  31    -9.6800070229423e-05
  32    4.4664194075729e-06
  33    -3.5092087116531e-05
  34    -9.087885403448e-06
  35    -4.2680172535866e-06
  36    -0.00013940645686418
  37    -1.8970081188163e-05
  38    1.4014506460321e-05
  39    -2.9349282177658e-06
  40    -8.234931792786e-05
  41    -9.0358500629848e-05
  42    4.8541666243424e-06
  43    -2.0288255285006e-05
  44    -9.8167363500313e-06
  45    5.841253926609e-06
  46    2.8704772991707e-05
  47    -1.4671337886095e-05
  48    1.3616276850159e-05
  49    2.9829113680157e-05
  50    -0.00027542783903627
  51    2.9588178378076e-06
  52    4.9645472712412e-07
  53    -1.2896594848798e-05
  54    1.1682901292762e-06
  55    5.0987444578404e-05
  56    3.0653921881382e-05
  57    -1.4885902933327e-05
  58    -8.1939817324545e-06
  59    -1.5646319369158e-05
  60    1.6703626792029e-05
  61    7.5311596550751e-06
  62    0.00016220419022511
  63    0.00068948499940359
  64    -0.00018925313229741
  65    7.3899846228262e-05
  66    -8.3718099571938e-05
  67    -0.00032343204244362
  68    -0.00015088770000982
  69    0.00017201359895765
  70    0.00086731149316846
  71    -0.00014019204727381
  72    7.6818304801783e-05
  73    -5.7654625842124e-05
  74    -1.7625540614283e-05
  75    2.3196686621007e-05
  76     0.000961984622625
  77    0.0015501717546696
  78    0.00021954666133189
  79    -6.3906571143872e-05
  80    3.8344906863141e-05
  81    0.0001431325147835
  82    0.00065129639832783
  83    -6.5088866173788e-05
  84    8.0473192375655e-05
  85    0.0003066302396293
  86    0.00014253771683081
  87    -0.00014976289201696
  88    -0.00078368482995613
  89    -0.00032229099189963
  90    5.753106838533e-05
  91    -3.3662740544584e-05
  92    -9.550626071691e-05
  93    9.120306344606e-05
  94    -6.7000050805508e-05
 Sym= A
 Ene=               2
 Spin= Alpha
 Occup=    1.00000
   1    7.8306967460606e-05
   2    9.8774288934611e-05
   3    -0.0017644870303197
   4    -0.00011318790860047
   5    -5.8686292929187e-08
   6    1.429308803186e-06
   7    -0.00085142311543774
   8    0.00043358727642074
   9    0.00025193949159895
  10    -1.0160864714831e-05
  11    2.0073197964279e-05
  12    4.8218119161222e-05
  13    -5.8713278140399e-05
  14    2.3928243659099e-05
  15    -0.00020240739139856
  16    0.00027055448337587
  17    0.0039148841904896
  18    0.00039884712666984
  19    -0.00083211258863783
  20    -0.00051999584775455
  21    -0.00030956483301294
  22    -0.0012060103125477
  23    -0.0011256866520142
  24    -3.6145795333559e-05
  25    -5.9769938045841e-05
  26    8.2640139220687e-05
  27    -5.863429424959e-05
  28    -5.5974655907947e-05
  29    -0.00024882002927856
  30    -7.9149747240979e-05
  31    -5.3366635928519e-06
  32    0.00013057505133085
  33    0.00010057288307334
  34       1.0010277237119
  35    0.00075042528978777
  36    -0.0058511341444039
  37    -0.00070118018215989
  38    0.0019668039066232
  39    0.0012128829593638
  40    0.00027442745334136
  41    -0.00054644255693423
  42    -0.00022531143275754
  43    1.1295711656172e-05
  44    4.1909561146268e-05
  45    -8.1854581734089e-05
  46    7.3692159168575e-05
  47    6.2688319222626e-05
  48    0.00010335603774935
  49    0.0001731628102339
  50    -0.00074356555933807
  51    1.8167942290281e-06
  52    3.7094584001495e-05
  53    -4.2312879450929e-05
  54    5.0802587584303e-05
  55    0.00043398745662341
  56    0.00013312724152185
  57    1.7890197676015e-05
  58    -1.1437055699781e-05
  59    3.7091519371147e-06
  60    1.8300729334309e-05
  61    -1.2546090691164e-05
  62    -1.8503871787027e-05
  63    -2.8867870861631e-05
  64    0.00013520863513848
  65    -8.5553627980195e-06
  66    7.196878332006e-07
  67    -1.5273266369052e-05
  68    0.00015507665617138
  69    -5.7061765737937e-05
  70    -3.9668810049809e-05
  71    1.8260082570273e-06
  72    -5.1392533031339e-06
  73    1.4531262836472e-05
  74    -3.6736260488398e-06
  75    -7.3969873358476e-07
  76    0.00012753093284693
  77    -0.00010076253431961
  78    2.1196758494044e-05
  79    -4.56250761026e-05
  80    -2.980656883017e-05
  81    -5.8960399686694e-05
  82    -0.0001185329554536
  83    0.00035787133715792
  84    -2.9764465509733e-05
  85    -3.2041373807925e-05
  86    8.4903071191378e-07
  87    6.5839368495216e-05
  88    9.1401415954647e-05
  89    2.080294248568e-06
  90    1.2874891111695e-05
  91    2.0706103090783e-06
  92    -5.6244547505357e-06
  93    -8.4542655749251e-06
  94    -8.68553903758e-07
 Sym= A
 Ene=               3
 Spin= Alpha
 Occup=    1.00000
   1    -0.00020247988670953
   2    0.0002700214497537
   3    0.0039147875898118
   4    -0.00039861045989901
   5    -0.00093255421549707
   6    -0.00030298026013899
   7    0.00030957323790691
   8    -0.0016375492039187
   9    -0.00020022503401599
  10    -4.497704540443e-05
  11    4.4506252008038e-06
  12    7.4043462036122e-05
  13    -6.3720576800261e-05
  14    8.1745130800677e-05
  15    7.8301588347912e-05
  16    9.8769252702709e-05
  17    -0.0017644188024225
  18    0.0001131769581858
  19    1.1048625181657e-06
  20    -9.5263623610625e-07
  21    0.00085140407823065
  22    0.0004717479116767
  23    0.00017018237901951
  24    -1.2500922767148e-05
  25    -5.4375888454371e-06
  26    4.5953599183771e-05
  27    -6.0073483269336e-05
  28    -3.0793717372583e-05
  29    0.00012752791297346
  30    -0.00010078070160944
  31    -2.1200319368323e-05
  32    -5.2160724025543e-05
  33    -1.5793551900781e-05
  34    -5.8963099383575e-05
  35    -0.00011854267665395
  36    0.00035787418516625
  37    2.9795770265542e-05
  38    -1.9921537702142e-05
  39    -2.5081668424615e-05
  40    -6.5833920170139e-05
  41    6.0339581046451e-05
  42    6.8685755962399e-05
  43    1.0634591559647e-05
  44    1.9972336900569e-06
  45    -7.7955253240152e-06
  46    -9.7457598165013e-06
  47    -1.0258024834735e-06
  48    -1.8503062115871e-05
  49    -2.8872280574867e-05
  50    0.00013517165841091
  51    8.5736100586654e-06
  52    -1.1231141667977e-05
  53    1.0361631651359e-05
  54    -0.00015506190166406
  55    -6.705980763016e-05
  56    -1.8218835195261e-05
  57    -1.0308006982504e-05
  58    -2.7377830666258e-06
  59    2.7741484482468e-06
  60    -1.0678256408285e-05
  61    4.4130915118873e-06
  62    0.00010336009511559
  63    0.00017318269595286
  64    -0.00074356873951536
  65    -1.8098058916786e-06
  66    -8.5872903652754e-06
  67    5.5567185623554e-05
  68    -5.0803497835913e-05
  69    0.00038092191466172
  70    0.00024684598276167
  71    -1.0325711120981e-05
  72    2.2576558477245e-06
  73    -2.3634923309132e-05
  74    2.015123925875e-06
  75    1.6828748077271e-05
  76    -0.00024883739438798
  77    -7.9034111916814e-05
  78    5.3501647874571e-06
  79    0.00016099861990937
  80    3.5386914197123e-05
  81       1.0010277256102
  82    0.00075334114210034
  83    -0.0058476926636344
  84    0.00070047103044153
  85    0.0021914498565148
  86    0.00072620570720678
  87    -0.00027490252740711
  88    -0.0005251147945539
  89    -0.00027433154541059
  90    3.3734131837913e-05
  91    -2.1094299585773e-05
  92    -6.0165641744413e-05
  93    8.6671296290903e-05
  94    -7.242997293408e-05
 Sym= A
 Ene=               4
 Spin= Alpha
 Occup=    1.00000
   1    8.5948181922189e-05
   2    0.00012252047681419
   3    -0.001613619213854
   4    -0.00014243479556767
   5    3.4466026084742e-05
   6    -2.6314834146263e-05
   7    -0.00065196551563577
   8    -0.00024882684390298
   9    0.00034113906829683
  10    -3.6414560122323e-07
  11    4.0031136053967e-05
  12    -7.6487231597169e-05
  13    -6.6051449389003e-05
  14    -2.9233949663697e-05
  15    -0.00018523101998502
  16    0.00027469569871347
  17    0.0035950383505439
  18    0.00038760294419139
  19    0.00079220273181717
  20    -0.00049565674223536
  21    -0.00020704274156289
  22    0.0011528609598301
  23    -0.001093652858454
  24    -2.6010323431578e-05
  25    -4.3445693333786e-05
  26    -9.0815695310033e-05
  27    -6.3254775872503e-05
  28    6.491418385279e-05
  29    -0.0002386315539495
  30    -7.4693325689802e-05
  31    -5.0173021139264e-06
  32    -0.00012850512194245
  33     0.000103127480024
  34    9.9322460078424e-05
  35    0.00016696435162936
  36    -0.00070329166431046
  37    -2.286038912641e-07
  38    -3.4929662534021e-05
  39    -4.0003014062519e-05
  40    4.6863869949499e-05
  41    -0.00040656189449023
  42    0.00013554165750535
  43    1.7970951004406e-05
  44     -1.1749891737e-05
  45    -2.5149934217207e-06
  46    1.5749305819102e-05
  47    1.1841271217325e-05
  48       1.0010210264071
  49    0.00090993418313799
  50    -0.0055920663751637
  51    -0.00073893245812213
  52    -0.0018452670563096
  53    0.0011092062059036
  54    0.00026210619016523
  55    0.00057360863796825
  56    -0.000282704000802
  57    1.1197590363967e-05
  58    4.1724057529917e-05
  59    8.4713485219636e-05
  60    7.3679973557006e-05
  61    -5.8118345258091e-05
  62    1.2794714395427e-06
  63    9.5785283918525e-06
  64    6.4229238406838e-05
  65    1.0195289482685e-05
  66    2.2575391841611e-06
  67    -1.5587857742872e-05
  68    6.5063651010103e-05
  69    -4.734074190248e-06
  70    -4.3979196780343e-05
  71    1.3479950466892e-05
  72    -1.2561827705517e-06
  73    -6.933438825846e-06
  74    -2.5424554676552e-06
  75    -3.9183169480228e-06
  76    8.1983906771779e-05
  77    0.0001181883632267
  78    -3.637134263463e-05
  79    -3.4456958845825e-06
  80    -1.813802260239e-05
  81    -1.9490614688155e-05
  82    -3.2560631923017e-05
  83    0.00016509133390677
  84    2.6513778272578e-06
  85    7.255975634578e-06
  86    6.8847981556292e-06
  87    8.1718635154495e-05
  88    7.1998243280718e-05
  89    -2.2508549506329e-05
  90    -5.9714046973094e-06
  91    1.5788845972496e-06
  92    -1.0564908084273e-05
  93    -1.2147102217573e-05
  94    4.6737922632981e-07
 Sym= A
 Ene=               5
 Spin= Alpha
 Occup=    1.00000
   1    -0.00018519442093882
   2    0.0002749676234563
   3    0.0035951157734739
   4    -0.0003877250126681
   5    0.00012957593256816
   6    0.00092582267502217
   7    0.00020704348360358
   8    -9.6703222593226e-05
   9    0.0015861183961467
  10    0.00010649604954878
  11    -7.7679130657069e-05
  12    3.7569602783329e-05
  13    1.3253945579454e-05
  14    -8.4521617981259e-06
  15    8.594776385467e-05
  16    0.00012253820612461
  17    -0.0016135675307208
  18    0.00014242286006254
  19    1.9979766858979e-06
  20    4.3354146079878e-05
  21    0.00065201421918954
  22    0.00010136805833706
  23    -0.00040982730687208
  24    9.8755069064568e-05
  25    4.8109073839348e-05
  26    1.9553293406562e-05
  27    -8.8216400926305e-06
  28    -1.1874711913143e-05
  29    8.1994333652955e-05
  30    0.00011809025428084
  31    3.6375867331078e-05
  32    -1.6108777090389e-05
  33    9.0181062561373e-06
  34    -1.9489855152652e-05
  35    -3.2559096723434e-05
  36    0.00016508864764608
  37    -2.6529860299533e-06
  38    9.9397016037303e-06
  39    1.1294165222876e-06
  40    -8.1727187272449e-05
  41    2.9036640520932e-05
  42    6.9609956190095e-05
  43    1.4468867570414e-05
  44    6.5682918562453e-07
  45    9.2392390882252e-06
  46    -3.4594750959064e-07
  47    -1.5095408911896e-06
  48    1.2790018020274e-06
  49    9.5793271739231e-06
  50    6.4241578766072e-05
  51    -1.0199439174266e-05
  52    -1.049041517632e-05
  53    1.1744695124187e-05
  54    -6.5072894656058e-05
  55    -3.6731863579062e-05
  56    2.4634329056272e-05
  57    8.8203059393352e-06
  58    2.1939689264076e-06
  59    -1.1448478581573e-05
  60    -5.23295619601e-06
  61    3.480643122626e-06
  62       1.0010210277987
  63    0.00090841547309227
  64    -0.0055938625700997
  65    0.00073902697263717
  66    -0.00033644597214296
  67    -0.0021277330441093
  68    -0.00026205524402964
  69    0.00015212325719878
  70    0.00062032889178828
  71    -0.00010832309906654
  72    7.1328062279277e-05
  73    -3.1115444407836e-05
  74    4.658161306993e-06
  75    5.3946574952296e-06
  76    -0.00023865456063766
  77    -7.477865439334e-05
  78    5.0114036295227e-06
  79    -3.6000753167376e-06
  80    -0.00016471765383206
  81    9.9320266124543e-05
  82    0.00016695567652096
  83    -0.00070328502449727
  84    2.2593758675321e-07
  85    -5.3115628086765e-05
  86    -1.053313994967e-06
  87    -4.6861145014519e-05
  88    -0.00015751628786502
  89    -0.00039857921666435
  90    -3.7054565698569e-06
  91    -1.6622485375306e-05
  92    -2.3513203967179e-05
  93    3.2324199050021e-06
  94    1.3883172562509e-06
 Sym= A
 Ene=               6
 Spin= Alpha
 Occup=    1.00000
   1    -0.000877716478065
   2    -0.015648421214876
   3    -0.027567512480109
   4     0.014955541227176
   5     0.033756421801665
   6     0.010375474335237
   7    0.0090295053716561
   8     0.044903098148395
   9     0.013418670343019
  10    -0.00087521901688154
  11     0.016727410861804
  12     0.035124449470212
  13    -0.014807697333593
  14    -0.0044028324221645
  15    -0.002260230294592
  16    -0.018824651464461
  17    -0.014442484735301
  18     0.018421173037961
  19    0.00091013475360181
  20    -0.004027031547565
  21    -0.0024280696894395
  22    0.0057620268323022
  23    0.00032707627350607
  24    0.00029948855384024
  25    7.1014346091042e-05
  26    0.00081606914190117
  27    -0.00067526296831572
  28    -0.00043823088119843
  29    -0.0089431466982769
  30    0.0071918029217013
  31    -0.0010133166440884
  32    0.00094823274820824
  33    0.0015140259812649
  34    -0.001074287633933
  35    0.0011437123993576
  36     0.013631854853295
  37    -0.0057449190852252
  38      0.00585001256067
  39    0.0045391149783175
  40    -0.0081430485600692
  41    0.0060468591101002
  42    0.0049394619754506
  43    -7.7523275886768e-05
  44    -2.03648870645e-05
  45    0.00017271581477753
  46    -0.00021837048792295
  47    7.2290555540852e-05
  48    0.00094411185955955
  49     0.002690077269949
  50    -0.0019778043130653
  51    -0.0017667068963071
  52    -0.0024534937286586
  53    -0.0016791335850381
  54     0.002150767645273
  55    -0.0024728128806304
  56    -0.0020290452856816
  57    7.1670685310761e-05
  58    0.00013365417967957
  59    9.5849822094426e-05
  60    -0.00035131475225135
  61    -0.0004259702498997
  62    -0.00053941806564905
  63    -0.0017253882386287
  64     0.001089864874423
  65      0.30471715347032
  66      0.58842295745205
  67     0.015641393448362
  68      0.21230848349462
  69      0.40688956814663
  70    0.0091723216544937
  71    -0.00098672465365676
  72    -0.0063322645232389
  73    -0.012204389249871
  74    0.0039909697863804
  75    0.0042745904236235
  76    -0.024536558188266
  77    -0.018515861380384
  78    0.00059832628708256
  79    -0.00095886901137015
  80    -0.0010821003850536
  81    -0.0019173178288367
  82     0.013591904546025
  83     0.051778909322428
  84    0.0062926605592231
  85     0.037619664982527
  86     0.027313012166751
  87    0.0073071339678824
  88     0.035011187305653
  89     0.025886449284676
  90    -0.00055062276849113
  91    0.00070327127392444
  92    0.00039669120434942
  93    -4.0441983024901e-05
  94    -0.00014345677623734
 Sym= A
 Ene=               7
 Spin= Alpha
 Occup=    1.00000
   1    0.0011715809403919
   2      0.02783480328397
   3     0.082341669130371
   4     0.047895268044407
   5    -0.0026610027228121
   6    -0.00093318753593579
   7     0.050271552167939
   8     0.017362166507168
   9    0.0087660757994974
  10    -0.00098806163272608
  11    -0.001030632706917
  12    -0.00096327380780784
  13    0.00095824226871065
  14    -0.0019448348152329
  15    0.0030529559671967
  16    0.00075075209221919
  17    -0.036017950245044
  18     0.002281774171967
  19    0.0012145296907982
  20    0.0020987179222609
  21     0.046552459654178
  22    -0.019947007157705
  23    0.0090891348223234
  24    -0.023800167284169
  25     -0.01072307151418
  26    -0.017595196439422
  27     0.011578931718858
  28    -0.027180293646291
  29    -0.051138226828632
  30    -0.050308660213703
  31    -0.0019769291547196
  32    0.0031412225502453
  33    0.00077239834318386
  34    0.0010133643531593
  35    0.0071019114444102
  36    -0.0020877685472229
  37      0.55114528253456
  38    -0.022698589698692
  39      0.37936417899151
  40      0.38094812133618
  41    -0.018397096001268
  42      0.26153986095004
  43    0.0068442588135237
  44    0.0029919006877157
  45    0.0062200403295064
  46    -0.0033133030963881
  47    0.0099840368763902
  48    -0.00098817243195055
  49    -0.00054200648203601
  50      0.01151643629737
  51    -0.0036113667518267
  52    -0.0021301177285611
  53    -0.0016422172183164
  54    -0.0076571396921019
  55    -0.0019954292756656
  56    0.0010864072594043
  57    -0.00055651442225819
  58    -0.00028671586693239
  59    -0.00033497845471423
  60    0.00033251181665048
  61    -0.00035063895554129
  62    0.00084551883768947
  63    -0.00059553417248759
  64     -0.01099821675502
  65    -0.0056061725834806
  66    0.00048877983214637
  67    0.0062995764558716
  68    -0.0092915821026179
  69    -0.0018256244478342
  70     0.007871720226794
  71    -0.00044353892743898
  72    -0.00066109534691525
  73    4.9437621613499e-05
  74    0.00016394150573555
  75    -9.5827548047706e-05
  76    -0.0061683485221241
  77    -0.013052483991705
  78    0.0022868233469497
  79    -0.00050703880672976
  80    -0.0015175382866101
  81    0.00052096738066273
  82    0.0054486874867459
  83    0.0085683384903673
  84     0.010118680239239
  85    0.0016762380156688
  86    -0.005364374993861
  87    -0.00012719102347213
  88    0.0038849319239781
  89    -0.0014566599778163
  90    0.00029835747120676
  91    0.0010076902720471
  92    0.00017504540784759
  93    -0.0013473620396793
  94    0.00096810445673254
 Sym= A
 Ene=               8
 Spin= Alpha
 Occup=    1.00000
   1    0.00099137458650367
   2     0.033822227368576
   3     0.091240117752267
   4     0.042341416803259
   5     0.008178186567285
   6    -0.008295732159358
   7      0.01847738742901
   8     -0.00500360299248
   9    -0.00090558508105963
  10    -0.00010973649349296
  11    -0.0014133340673346
  12    0.00077795814030119
  13    0.0013413889208083
  14    0.00074903547229854
  15    0.0030124874709342
  16    0.0039520414731572
  17    -0.012583173507703
  18    0.0010139435358253
  19    0.0012848964934435
  20    -0.0010548248083688
  21     0.032439909281545
  22     0.015666222261797
  23    0.0093313779063124
  24     -0.02291927811954
  25    -0.010533564117508
  26     0.016842571754649
  27     0.012257071656381
  28     0.026381767560147
  29     -0.05066507155053
  30    -0.047477808725771
  31    -0.0017487489411105
  32    -0.0028368606443933
  33    0.00082059706843047