[Molden Format]
made by pyscf v[2.0.1]
[Atoms] (AU)
C   1   6     0.00000000000000     0.00000000000000     0.00000000000000
C   2   6     2.85272299873892     0.00000000000000     0.00000000000000
H   3   1     3.62066923017674     0.00000000000000     1.90331545357504
F   4   9     3.65943188126013    -2.04308229183900    -1.24074875274501
F   5   9     3.65943188126013     2.04308229183900    -1.24074875274501
F   6   9    -0.80670888252121    -2.34423041954446     0.46714714892290
H   7   1    -0.76794623143782     0.65097222422570    -1.78853148675225
F   8   9    -0.80670888252121     1.49550828705447     1.86469774548472
[GTO]
1 0
 s    8 1.00
                  6665  0.00069158396281299
                  1000  0.0053257961529341
                   228   0.027060721042034
                 64.71    0.10165684614077
                 21.06     0.2745748236174
                 7.495    0.44829431892377
                 2.797    0.28490261071525
                0.5215   0.015194859206082
 s    8 1.00
                  6665  -0.00029326965268655
                  1000  -0.0023180354739745
                   228  -0.011499786038565
                 64.71  -0.046826727009787
                 21.06   -0.12846616875047
                 7.495   -0.30126627246289
                 2.797   -0.25563070233011
                0.5215      1.093793361012
 s    1 1.00
                0.1596                   1
 p    3 1.00
                 9.439   0.056979251590039
                 2.002    0.31320721150073
                0.5456    0.76037674173753
 p    1 1.00
                0.1517                   1
 d    1 1.00
                  0.55                   1

2 0
 s    8 1.00
                  6665  0.00069158396281299
                  1000  0.0053257961529341
                   228   0.027060721042034
                 64.71    0.10165684614077
                 21.06     0.2745748236174
                 7.495    0.44829431892377
                 2.797    0.28490261071525
                0.5215   0.015194859206082
 s    8 1.00
                  6665  -0.00029326965268655
                  1000  -0.0023180354739745
                   228  -0.011499786038565
                 64.71  -0.046826727009787
                 21.06   -0.12846616875047
                 7.495   -0.30126627246289
                 2.797   -0.25563070233011
                0.5215      1.093793361012
 s    1 1.00
                0.1596                   1
 p    3 1.00
                 9.439   0.056979251590039
                 2.002    0.31320721150073
                0.5456    0.76037674173753
 p    1 1.00
                0.1517                   1
 d    1 1.00
                  0.55                   1

3 0
 s    3 1.00
                 13.01   0.033498726389998
                 1.962    0.23480080117413
                0.4446     0.8136829578829
 s    1 1.00
                 0.122                   1
 p    1 1.00
                 0.727                   1

4 0
 s    8 1.00
                 14710  0.00072067370873197
                  2207  0.0055504869689163
                 502.8   0.028254207662589
                 142.6    0.10639582836653
                 46.47    0.28668420124307
                  16.7    0.44843796582416
                 6.356    0.26464118141135
                 1.316   0.015326060993048
 s    8 1.00
                 14710  -0.00032119389049893
                  2207  -0.0025461915683188
                 502.8  -0.012643359507821
                 142.6   -0.05195749170489
                 46.47   -0.14344713812646
                  16.7   -0.33243762329603
                 6.356   -0.21865906750347
                 1.316     1.0955904138622
 s    1 1.00
                0.3897                   1
 p    3 1.00
                 22.67   0.064834021493887
                 4.977    0.34053535983101
                 1.347    0.73464640679382
 p    1 1.00
                0.3471                   1
 d    1 1.00
                  1.64                   1

5 0
 s    8 1.00
                 14710  0.00072067370873197
                  2207  0.0055504869689163
                 502.8   0.028254207662589
                 142.6    0.10639582836653
                 46.47    0.28668420124307
                  16.7    0.44843796582416
                 6.356    0.26464118141135
                 1.316   0.015326060993048
 s    8 1.00
                 14710  -0.00032119389049893
                  2207  -0.0025461915683188
                 502.8  -0.012643359507821
                 142.6   -0.05195749170489
                 46.47   -0.14344713812646
                  16.7   -0.33243762329603
                 6.356   -0.21865906750347
                 1.316     1.0955904138622
 s    1 1.00
                0.3897                   1
 p    3 1.00
                 22.67   0.064834021493887
                 4.977    0.34053535983101
                 1.347    0.73464640679382
 p    1 1.00
                0.3471                   1
 d    1 1.00
                  1.64                   1

6 0
 s    8 1.00
                 14710  0.00072067370873197
                  2207  0.0055504869689163
                 502.8   0.028254207662589
                 142.6    0.10639582836653
                 46.47    0.28668420124307
                  16.7    0.44843796582416
                 6.356    0.26464118141135
                 1.316   0.015326060993048
 s    8 1.00
                 14710  -0.00032119389049893
                  2207  -0.0025461915683188
                 502.8  -0.012643359507821
                 142.6   -0.05195749170489
                 46.47   -0.14344713812646
                  16.7   -0.33243762329603
                 6.356   -0.21865906750347
                 1.316     1.0955904138622
 s    1 1.00
                0.3897                   1
 p    3 1.00
                 22.67   0.064834021493887
                 4.977    0.34053535983101
                 1.347    0.73464640679382
 p    1 1.00
                0.3471                   1
 d    1 1.00
                  1.64                   1

7 0
 s    3 1.00
                 13.01   0.033498726389998
                 1.962    0.23480080117413
                0.4446     0.8136829578829
 s    1 1.00
                 0.122                   1
 p    1 1.00
                 0.727                   1

8 0
 s    8 1.00
                 14710  0.00072067370873197
                  2207  0.0055504869689163
                 502.8   0.028254207662589
                 142.6    0.10639582836653
                 46.47    0.28668420124307
                  16.7    0.44843796582416
                 6.356    0.26464118141135
                 1.316   0.015326060993048
 s    8 1.00
                 14710  -0.00032119389049893
                  2207  -0.0025461915683188
                 502.8  -0.012643359507821
                 142.6   -0.05195749170489
                 46.47   -0.14344713812646
                  16.7   -0.33243762329603
                 6.356   -0.21865906750347
                 1.316     1.0955904138622
 s    1 1.00
                0.3897                   1
 p    3 1.00
                 22.67   0.064834021493887
                 4.977    0.34053535983101
                 1.347    0.73464640679382
 p    1 1.00
                0.3471                   1
 d    1 1.00
                  1.64                   1

[5d]
[7f]
[9g]

[MO]
 Sym= A
 Ene=               0
 Spin= Alpha
 Occup=    1.00000
   1    -0.00019759315980297
   2    -0.00086171109431081
   3    0.0027423410506145
   4    -0.0010613466523301
   5    2.6337367642406e-05
   6    -0.00011900525318815
   7    0.0011429235670672
   8    -4.070440912574e-05
   9    0.00036162160241426
  10    8.4109552916371e-05
  11    -1.3951517210067e-05
  12    2.5549380320611e-05
  13    -0.00019654223935884
  14    1.7412094748984e-05
  15       1.0018590217581
  16    -0.00094904186215724
  17    -0.0094905833545322
  18    0.00015936441434979
  19    3.8829807612415e-05
  20    -0.0030564532461942
  21    0.0016241519795359
  22    5.4995818528831e-05
  23    -0.0016004201537752
  24    -0.0001021184284226
  25    -0.00011766511011103
  26    -1.166171645715e-05
  27    -0.00030904890377309
  28    7.7998007364992e-06
  29    -0.0030707560117831
  30    0.00087258407848639
  31    -5.491409458702e-05
  32    -5.5951433766683e-06
  33    0.00032734112551543
  34    0.0001291743794684
  35    -0.00012231680642508
  36    -0.00064592080533303
  37    0.0004507704577009
  38    -0.0010543027765303
  39    -0.0005600360008789
  40    0.00041498083955416
  41    -0.0015940492454983
  42    -0.00066320228946407
  43    3.8055825742881e-05
  44    6.3365746303682e-05
  45    -0.00021678857301689
  46    0.0001451408219635
  47    0.00011823101113965
  48    0.00014575026823749
  49    -9.1095341830126e-05
  50    -0.00074929785771543
  51    0.00044531898709059
  52    0.0010575548172509
  53    -0.00055891436569241
  54    0.00042840382832272
  55    0.0016186965962025
  56    -0.00068422238491909
  57    3.8360272067024e-05
  58    6.5143603562666e-05
  59    0.00022239746853901
  60    0.00014776625119009
  61    -0.00012156672931075
  62    -2.067252531844e-05
  63    3.5534771512766e-05
  64    5.1971610973061e-05
  65    0.0001745857255965
  66    9.3545590561819e-05
  67    4.6478962261545e-05
  68    0.00034261295477453
  69    -1.9196723349176e-05
  70    -8.4482246820246e-06
  71    -1.8996877023866e-05
  72    -4.8756643465722e-06
  73    -5.2718100963184e-06
  74    1.7665432790131e-05
  75    1.0713421274852e-06
  76    -5.1259983063327e-06
  77    0.00039653986271996
  78    6.481608908942e-05
  79    -1.1792497617402e-05
  80    2.8711004102798e-05
  81    4.9393615160636e-06
  82    0.0001141476254784
  83    -8.9333905985509e-06
  84    0.00026319391723318
  85    -0.00011011766521844
  86    -3.0473284809462e-05
  87    0.00034296239851331
  88    2.0172861839098e-05
  89    -1.9492560733254e-05
  90    -3.0570725534341e-06
  91    -4.2545894437623e-06
  92    1.207895851232e-05
  93     1.59600392217e-05
  94    5.6480429222271e-06
 Sym= A
 Ene=               1
 Spin= Alpha
 Occup=    1.00000
   1       1.0018590213245
   2    -0.0009490378122433
   3    -0.0094905878344828
   4    -0.00015941398555272
   5    -0.0010089002238722
   6    0.0028854158133375
   7    -0.0016241565553111
   8    -0.00049570993569011
   9     0.001522711589461
  10    -4.6390075256206e-05
  11    -0.00011324349438743
  12    0.00016510184768672
  13    -0.00027688318456408
  14    3.2905468855047e-05
  15    -0.00019757286370327
  16    -0.00086170562394631
  17    0.0027423068278254
  18    0.0010614016483566
  19    -1.5923265405474e-05
  20    0.00012080347838989
  21    -0.0011429061429535
  22    8.5426443109894e-05
  23    -0.00035374046700847
  24    7.5042609352022e-05
  25    -1.9068901477067e-05
  26    -3.2315627052443e-06
  27    -0.00020178529964983
  28    -1.1585692749794e-05
  29    -5.1232107512748e-06
  30    0.00039655069901934
  31    -6.4814526916109e-05
  32    -1.2604722785135e-06
  33    -3.1014097795788e-05
  34    -2.067291413137e-05
  35    3.5531260673632e-05
  36    5.1968253885637e-05
  37    -0.0001746210250453
  38    0.00010381990320687
  39    -1.1719608479048e-05
  40    -0.00034264082263069
  41    -2.0916545056983e-05
  42    1.3466324877379e-06
  43    -1.4519752642251e-05
  44    -4.9479440587968e-06
  45    8.9354550274416e-06
  46    2.0250440250388e-05
  47    6.604477319669e-07
  48    4.9384033277243e-06
  49    0.00011417224731671
  50    -8.9061398494932e-06
  51    -0.00026322908810812
  52    -0.00011397122997619
  53    -9.0097344719738e-06
  54    -0.00034298826301798
  55    1.224237787858e-05
  56    2.5227763553308e-05
  57    -1.0862268926645e-05
  58    -5.9301606308549e-06
  59    -1.2682767937557e-05
  60    1.1452022519219e-05
  61    -3.8508461328171e-06
  62    0.00012917371257904
  63    -0.0001223112100358
  64    -0.00064592174289383
  65    -0.00045057666185203
  66    -0.0011823067823528
  67    0.00016569095370232
  68    -0.00041484479618921
  69    -0.0017247783570091
  70    7.8025086239165e-05
  71    0.00013735391304647
  72    1.9106167580497e-05
  73    9.8238190815553e-05
  74    0.00020247222672971
  75    -0.00013276968242054
  76    -0.003070731785018
  77    0.00087260353842686
  78    5.4912779601713e-05
  79    0.00010669886673335
  80    -0.00030951223237191
  81    0.00014574969091651
  82    -9.1090862358885e-05
  83    -0.00074929016331604
  84    -0.00044540257234254
  85    0.00080243470055095
  86    0.00088697695439997
  87    -0.00042846035539726
  88    0.0012869331976055
  89    0.0011966307652236
  90    -0.00010714418320189
  91    0.00010279562383703
  92    -0.00023920898600271
  93    6.3756748294166e-05
  94    9.1954500718407e-05
 Sym= A
 Ene=               2
 Spin= Alpha
 Occup=    1.00000
   1    6.6668011970751e-05
   2    9.0439011418221e-05
   3    -0.0016188889500954
   4    -0.00012472334532096
   5    -2.1739194671297e-05
   6    -1.0346198653061e-05
   7    -0.00087768182511911
   8    0.00028414582061013
   9    0.00016777355190538
  10    8.3791905562503e-06
  11    1.3018675840952e-05
  12    4.2284941227149e-05
  13    -9.9195879293393e-05
  14    1.1166834326319e-05
  15    -4.2220180936143e-05
  16    6.0312184122581e-05
  17    0.0039321712465474
  18    0.0002604432192332
  19    -0.00047312714902898
  20    -0.00028245580719314
  21    -0.00035019346080851
  22    -0.0011546715730873
  23    -0.0010265469607029
  24    -5.2254674074503e-06
  25    -1.1461036018127e-06
  26    -6.0516602900288e-05
  27    4.7983747129309e-05
  28    2.6736956628867e-05
  29    -0.0002359816763712
  30    -0.00014035258343284
  31    -1.1148403975395e-08
  32    0.00013952872018193
  33    0.00011927928225925
  34       1.0010162364956
  35    -0.0043069265455972
  36    -0.011534619696492
  37    -0.0010478481607449
  38    0.0025735574206842
  39    0.0015627170149678
  40    3.6499498656222e-05
  41    -5.4463745588976e-05
  42    5.2716654841825e-05
  43    1.7050216693978e-05
  44    4.5999940463479e-05
  45    -0.00010020089598557
  46    8.232764362146e-05
  47    7.164431903057e-05
  48    9.9210462535282e-05
  49    0.0001829295062892
  50    -0.00072000431865957
  51    6.0719061590661e-06
  52    -6.8611089621298e-06
  53    -5.0470200018868e-05
  54    5.2667763505643e-05
  55    0.00040281250312813
  56    0.00011994264475075
  57    2.1672983778512e-05
  58    -1.2534189214634e-05
  59    3.7708367625992e-06
  60    2.1990121441799e-05
  61    -1.2681005691736e-05
  62    -4.2674413801022e-06
  63    -4.4994925459095e-06
  64    0.0001176043326626
  65    1.3201440690312e-05
  66    -2.2926228322727e-05
  67    1.9178244384755e-05
  68    -1.7301225470474e-05
  69    4.1167681847004e-05
  70    -4.9960495878063e-05
  71    1.3403656003847e-05
  72    8.6897541131414e-06
  73    4.9137635090044e-06
  74    -1.5625266208972e-05
  75    -1.8303520178313e-06
  76    0.00013416509715781
  77    -0.00016138694203413
  78    -2.5355243392569e-05
  79    -1.0837376370972e-05
  80    -8.9863253754047e-07
  81    -2.4429951059877e-05
  82    -4.0049375941261e-05
  83    0.00012214715230352
  84    -2.9064946818402e-05
  85    -4.6003314712174e-06
  86    -6.2749009305091e-06
  87    0.00019013510999882
  88    -3.4817486018959e-05
  89    -1.2319119304722e-05
  90    -7.1618787526314e-06
  91    2.6706157817844e-06
  92    4.0992363747457e-07
  93    -2.9744609207032e-06
  94    -9.8985603534991e-07
 Sym= A
 Ene=               3
 Spin= Alpha
 Occup=    1.00000
   1    -4.2196574564985e-05
   2    6.0382969889088e-05
   3    0.0039321757356498
   4    -0.00026048814335989
   5    -0.00054134792396455
   6    0.00010356941099247
   7    0.00035014904164756
   8    -0.0014361663875056
   9    0.00056964802865248
  10    2.4495192917563e-05
  11    -1.0212260422262e-05
  12    3.3887221518981e-05
  13    6.5180372794099e-05
  14    -2.4695806303028e-05
  15    6.6672817465708e-05
  16    9.0484647822832e-05
  17    -0.001618814952419
  18    0.00012467728107005
  19    -2.3978709621951e-05
  20    2.2883030958606e-06
  21    0.00087765391153696
  22    0.0003244331121787
  23    -6.0443196104948e-05
  24    -6.5792168865488e-06
  25    8.4154505646812e-06
  26    -5.1724011129873e-06
  27    -0.00010783382322392
  28    -1.4934290716335e-05
  29    0.00013417389062901
  30    -0.00016142162448495
  31    2.5354357469677e-05
  32    -1.0493748409001e-05
  33    -2.8616212801337e-06
  34    -4.269093020898e-06
  35    -4.4948514180901e-06
  36    0.00011763077797413
  37    -1.3272773541886e-05
  38    -1.4989581248151e-05
  39    -2.5877149206872e-05
  40    1.725728986647e-05
  41    2.1601525334769e-05
  42    6.1016858037681e-05
  43    9.8988267485478e-06
  44    8.7913852375776e-06
  45    -6.2029965643012e-06
  46    -1.7648541604705e-05
  47    -1.2547579770194e-06
  48    -2.4427631986193e-05
  49    -4.0044207724794e-05
  50    0.00012213157963573
  51    2.9057091917373e-05
  52    -6.4612709245133e-06
  53    4.3279232268159e-06
  54    -0.00019013575707063
  55    -3.6923203948697e-05
  56    -3.3777077735513e-07
  57    -5.8320351815193e-06
  58    2.8475962949531e-06
  59    4.6290376693286e-06
  60    -2.2064861675122e-06
  61    1.7414616628033e-08
  62       1.0010162199613
  63    -0.0043079496486197
  64    -0.011535823183802
  65     0.001047311350097
  66    0.0029534420397222
  67    -0.00058915231087221
  68    -3.6874908966538e-05
  69    -3.2736195807384e-05
  70    -6.8774595141815e-05
  71    6.1497315064224e-05
  72    1.8716716181217e-05
  73    4.0787411951873e-05
  74    0.00010797459475443
  75    -8.3064036621488e-05
  76    -0.00023605737917232
  77    -0.00014046378011334
  78    1.1078483216729e-08
  79    0.00017190993384637
  80    -6.4364287139504e-05
  81    9.9208364201045e-05
  82    0.00018291223951186
  83    -0.00071998320489498
  84    -6.0661599055746e-06
  85    -2.3626220012564e-05
  86    4.5087010449738e-05
  87    -5.2655028056931e-05
  88    0.00041959527772177
  89    2.5059884492759e-05
  90    1.3542264018302e-05
  91    -7.4396827881283e-06
  92    -2.2021348189984e-05
  93    1.7297431803326e-05
  94    1.6204759524113e-05
 Sym= A
 Ene=               4
 Spin= Alpha
 Occup=    1.00000
   1    6.9652902027068e-05
   2    0.00010470572321086
   3    -0.001495661119107
   4    -0.0001449547412406
   5    3.3758816530425e-05
   6    -2.9324973722487e-05
   7    -0.00077551324637464
   8    -0.00015640019529107
   9    0.00022394232735282
  10    3.8244918644103e-05
  11    4.2590880844741e-05
  12    -6.2711097227363e-05
  13    -9.1527086625078e-05
  14    -1.0418802686006e-05
  15    -3.038603502422e-05
  16    7.9823470839799e-05
  17    0.0037589697059212
  18    0.00026207674021798
  19    0.00046618207097502
  20    -0.00028470840639302
  21    -0.00030841737335913
  22    0.0011113289613552
  23    -0.00096876578762968
  24    8.8378481208751e-06
  25    1.9046871821991e-05
  26    5.4370471838632e-05
  27    4.9500043191413e-05
  28    -1.9037830932286e-05
  29    -0.00025011479204007
  30    -0.00013816004600842
  31    4.5337351705822e-06
  32    -0.00013696720722888
  33    0.00012208504846923
  34    9.5847465733882e-05
  35    0.00017545560926985
  36    -0.00069061920646423
  37    3.9539220661517e-06
  38    1.9678549104352e-06
  39    -4.6413525799835e-05
  40    5.8002648646822e-05
  41    -0.00038056883459029
  42    0.00011069799423226
  43    2.1055461195306e-05
  44    -1.2093347669916e-05
  45    -2.7720252084742e-06
  46    1.9288229726724e-05
  47    1.2750591663723e-05
  48       1.0010103226102
  49    -0.0042947891967056
  50    -0.011451444472841
  51    -0.0010770643879023
  52    -0.0025837276438159
  53    0.0014962746588034
  54    3.4666053124024e-05
  55    3.6275345876999e-06
  56    -2.0872481449348e-06
  57    1.5077484433153e-05
  58    4.7895043038538e-05
  59    0.00010148392309434
  60    8.0185937177714e-05
  61    -6.7242963839619e-05
  62    -2.4628576917429e-05
  63    -4.1839331422199e-05
  64    0.00013653015321134
  65    -1.9193119009396e-05
  66    4.4078773139337e-06
  67    7.4367136924858e-06
  68    0.00014669102482987
  69    2.9843629964861e-05
  70    -3.5114106630817e-05
  71    5.7194893292458e-06
  72    1.5321106812743e-06
  73    -8.5138196506521e-06
  74    1.6812701037627e-06
  75    -4.6485147916229e-06
  76    7.8649448723844e-05
  77    -9.4708166686467e-05
  78    -6.3686514273189e-05
  79    -1.5215892513247e-05
  80    -2.2385920606733e-05
  81    2.4870753413938e-05
  82    5.4594479207649e-05
  83    -1.0731782773268e-05
  84    3.1485287091784e-05
  85    -1.5910392525102e-06
  86    -4.2968733086959e-06
  87    -3.7404612249743e-05
  88    -2.1709496647277e-05
  89    -1.3924643449515e-05
  90    1.0017484431945e-05
  91    7.8823316996695e-06
  92    4.3734371758514e-06
  93    -1.2899959429279e-05
  94    -5.1105323175875e-06
 Sym= A
 Ene=               5
 Spin= Alpha
 Occup=    1.00000
   1    -3.0374607631586e-05
   2    7.9836560560685e-05
   3    0.0037589796954279
   4    -0.0002620440711271
   5    0.00034083061206928
   6    0.00042698874280104
   7    0.0003084730202301
   8    0.00071307535864075
   9     0.001290388242723
  10    -2.8046119846985e-05
  11    2.4462928339308e-05
  12    -6.2461004645921e-05
  13    2.8175305360677e-05
  14    1.1401040644262e-05
  15    6.9646451957165e-05
  16    0.00010466751203846
  17    -0.0014957004860942
  18    0.00014500476410878
  19    2.1709528023499e-05
  20    3.9112835932288e-05
  21    0.00077556031317092
  22    -7.0353208854692e-05
  23    -0.00026387982892929
  24    7.5719342102609e-05
  25    4.3583012914848e-05
  26    5.6171239503052e-05
  27    -6.9892477467142e-05
  28    -4.7803302103635e-06
  29    7.8641459472082e-05
  30    -9.4737259714806e-05
  31    6.3687251378734e-05
  32    -2.1954335418591e-05
  33    1.5834722603221e-05
  34    -2.4630158634761e-05
  35    -4.1836993718823e-05
  36    0.00013656187164128
  37    1.9208223216969e-05
  38    6.7229392772525e-06
  39    -5.5089343491282e-06
  40    -0.00014669024493408
  41    1.6065365437201e-05
  42    4.3184602978427e-05
  43    9.2847993327998e-06
  44    3.0306653229353e-06
  45    2.7975232214972e-06
  46    3.7381720130121e-06
  47    3.8454579539386e-06
  48    2.4866564313412e-05
  49    5.4588585801103e-05
  50    -1.0738801099366e-05
  51    -3.1468719086852e-05
  52    -2.9791863318487e-06
  53    3.4664635139094e-06
  54    3.7412958089535e-05
  55    -2.5172404592274e-05
  56    5.6376229494114e-06
  57    7.1318512496258e-06
  58    9.1546091519353e-06
  59    -4.7802844379736e-06
  60    -1.4566073957687e-05
  61    2.1051018469089e-06
  62    9.5844357364381e-05
  63    0.0001754886035189
  64    -0.00069050530804254
  65    -4.0289710214683e-06
  66    -1.3917859906756e-05
  67    4.4296067970772e-05
  68    -5.8051658226549e-05
  69    -0.00031965819659088
  70    -0.0002341723579882
  71    1.6949059777323e-05
  72    -1.5722462607312e-05
  73    -1.5796586679838e-05
  74    1.691676953939e-05
  75    -7.8470028741922e-06
  76    -0.0002501478476077
  77    -0.00013821227833049
  78    -4.5342629880249e-06
  79    -8.6950907907232e-05
  80    -0.00016156654099574
  81       1.0010103069134
  82    -0.0042956468613763
  83    -0.011452419290241
  84    0.0010781015266102
  85    -0.0019151458769679
  86    -0.0022905580302654
  87    -3.3947964231252e-05
  88    3.3863621971282e-06
  89    2.6243331656954e-06
  90    -5.2166555932283e-05
  91    6.7981780352525e-05
  92    -0.00011191451123943
  93    4.1374356803151e-05
  94    4.6803190080072e-05
 Sym= A
 Ene=               6
 Spin= Alpha
 Occup=    1.00000
   1    -0.0024395492990235
   2    -0.0024946285434013
   3     0.021265423563703
   4    0.0085338626577891
   5    0.0043929388051535
   6     0.017053637727204
   7     0.035371590651328
   8     0.020624010654745
   9     0.027268921983663
  10     0.012040562697931
  11    -0.0016800004587159
  12    -0.028738206596948
  13    -0.013416135376069
  14    -0.024613888122012
  15    -0.0016146373056362
  16    -0.022293154002602
  17    -0.066760912899133
  18       0.0324244699832
  19    -0.0020539231199213
  20    -0.0027047735020766
  21     0.027581315658927
  22    -0.027069120232465
  23    -0.0072568386879865
  24    -0.00030332426153035
  25    -0.00019303759197592
  26    -0.001285838685429
  27    -0.0017982586935177
  28    -0.0010747690299416
  29    -0.0020744453001416
  30     0.018265739528498
  31    0.00060483278842976
  32    0.00091200676880357
  33    -0.00047926610099202
  34    0.00054669082831614
  35    -0.00065558141800112
  36    -0.0088302921452038
  37    0.00076901792812102
  38    0.0025785660104757
  39    -0.0042206636048309
  40    -0.0027290326774915
  41    0.00086773606079194
  42    -0.0036028511974167
  43    -3.4340431315333e-05
  44    -0.0001777020681301
  45    -0.00034446880998054
  46    0.00015177868436744
  47    0.00065426843744788
  48    -0.0013105372891945
  49    -0.00021162010068524
  50      0.01621135244646
  51    -0.0046749484444586
  52    -0.0041999434944947
  53    0.0045354689172669
  54    -0.0059100703822573
  55    -0.005401291120715
  56    0.0076020017853016
  57    0.00010006509237391
  58    0.00036129460578681
  59    -0.00014700034323252
  60    -0.00029263012776353
  61    -0.00041539165243921
  62    -0.001341221392745
  63    -0.0035715495726753
  64    0.0078524855454989
  65      0.46185201878857
  66     -0.06477748608797
  67      0.47785386462201
  68      0.32012842428284
  69    -0.042572137441842
  70      0.32980445415024
  71    -0.0032717180762696
  72     0.002120309539673
  73    0.0098061162632406
  74    0.0046523049106613
  75    0.0087966852804587
  76     0.042595136425936
  77     0.048400275085373
  78    -0.0023019400337472
  79    -0.0029628806539226
  80    -0.0012364942684351
  81    0.0012822829506487
  82    -0.0025734090295826
  83    -0.021593948294191
  84    -0.0041431371897227
  85    0.0093562880533351
  86    0.0026180843866664
  87    -0.007684224875421
  88    0.0087092224178211
  89    0.0042509310043746
  90    0.00021150986208049
  91    -6.8468991936348e-05
  92    -0.00053985934636944
  93    -0.00051700271675179
  94    -0.00039041845221601
 Sym= A
 Ene=               7
 Spin= Alpha
 Occup=    1.00000
   1    0.0010779857966558
   2     0.025157894053807
   3     0.078662297791189
   4     0.032534350039304
   5    0.0002538619771509
   6    -0.0079090724831025
   7     0.015430207657241
   8    -0.018946282507058
   9    -0.010437540852915
  10    0.00043901483164682
  11    -0.00083140553330701
  12     0.001263729310328
  13    0.00099613163393317
  14    0.00081199320982058
  15    0.0025170562802864
  16    0.0038492846858518
  17    -0.012020694935789
  18     0.010003108935449
  19    0.0066132910807766
  20     0.011604273706479
  21     0.031482569001103
  22     0.023711575418437
  23     0.016279917812698
  24    -0.025170221880523
  25    -0.0084788308211075
  26     0.018497484338729
  27    0.0078015906468076
  28     0.024850767738301
  29    -0.040925899285161
  30    -0.044307185980293
  31    -0.0022447406198202
  32    -0.0030965255500189
  33    -0.00026439187275876
  34    -0.00099312090532155
  35    0.0012575410199561
  36     0.015458928687279
  37    -0.0040880932033909
  38    0.0055771489126276
  39    -0.0013356416298663
  40    -0.0064098564240415
  41    0.0057254543183927
  42    0.00031776445614649
  43    -0.00049610986376507
  44    -0.00010003520372586
  45    0.00043640635697816
  46    0.00029408769300558
  47    0.00040890737030923
  48    0.0014354630125439
  49    -0.0029002796841046
  50     -0.01563092894754
  51      0.50252632698053
  52     0.064674434100993
  53      0.43577888823237
  54      0.34902875436566
  55     0.046311561936331
  56      0.29980458086082
  57    0.0080304053211248
  58    0.0017335950137933
  59    -0.0067673474789677
  60    -0.002657070920737
  61    -0.0091993196518394
  62    0.0010307480205157
  63    -0.001514084227049
  64    -0.019113770993968
  65    -0.006454808091984
  66    -0.006370872842843
  67    0.0034884434672713
  68    -0.0043800708316579
  69    -0.0098995849660789
  70    0.0042295871780024
  71    -6.4694265931929e-05
  72    -0.00021710107088164
  73    -3.85159566517e-05
  74    0.00055135872633114
  75    0.00054475319803741
  76    0.0069659798703536
  77    -0.029461984572116
  78    -0.0031664337971097
  79    -0.00045623195938757
  80    0.00079669235737472
  81    -0.00021683965073736
  82    -0.0012355071737178
  83    -0.00083987488016632
  84    -0.0026223637580128
  85    0.0020028356729582
  86    0.0022760771883173
  87    -0.0034615794240383
  88    0.0050334333793223
  89    0.0019153035232046
  90    4.7325129431263e-05
  91    -0.00032206981302642
  92    -9.090643572619e-05
  93    0.00027730548996269
  94    -0.0002434909920421
 Sym= A
 Ene=               8
 Spin= Alpha
 Occup=    1.00000
   1    -0.0025175020758082
   2    -0.0038535883286206
   3     0.012014572276325
   4     0.010010930429795
   5     -0.01016634018388
   6    0.0086392803932769
   7     0.031490160890237
   8    -0.027832350608029
   9    0.0071822042547649
  10     0.031832921071319
  11     0.016475085812736
  12     0.002670352596018
  13    -0.0039618842975863
  14     0.020455336776445
  15    -0.0010794065062723
  16    -0.025166070181227
  17    -0.078667909264046
  18     0.032543531785929
  19    0.0024674605595086
  20    -0.0075185473478177
  21     0.015434637179172
  22     0.021377218594008
  23    -0.0033223141023647
  24    0.00044234910850476
  25    0.0010591067836657
  26    0.0015332866303627
  27    -0.00048766095128379
  28    0.00047844612231491
  29    -0.0069686563405409
  30     0.029460593171183
  31    -0.0031663558163356
  32    0.00015631368572361
  33    0.00090511052617574