[Molden Format]
made by pyscf v[2.0.1]
[Atoms] (AU)
C   1   6     0.00000000000000     0.00000000000000     0.00000000000000
C   2   6     2.85272299873892     0.00000000000000     0.00000000000000
H   3   1     3.62066923017674     0.00000000000000     1.90331545357504
F   4   9     3.65943188126013    -2.04308229183900    -1.24074875274501
F   5   9     3.65943188126013     2.04308229183900    -1.24074875274501
F   6   9    -0.80670888252121    -0.46714714892290    -2.34423041954446
H   7   1    -0.76794623143782     1.78853148675225     0.65097222422570
F   8   9    -0.80670888252121    -1.86469774548472     1.49550828705447
[GTO]
1 0
 s    8 1.00
                  6665  0.00069158396281299
                  1000  0.0053257961529341
                   228   0.027060721042034
                 64.71    0.10165684614077
                 21.06     0.2745748236174
                 7.495    0.44829431892377
                 2.797    0.28490261071525
                0.5215   0.015194859206082
 s    8 1.00
                  6665  -0.00029326965268655
                  1000  -0.0023180354739745
                   228  -0.011499786038565
                 64.71  -0.046826727009787
                 21.06   -0.12846616875047
                 7.495   -0.30126627246289
                 2.797   -0.25563070233011
                0.5215      1.093793361012
 s    1 1.00
                0.1596                   1
 p    3 1.00
                 9.439   0.056979251590039
                 2.002    0.31320721150073
                0.5456    0.76037674173753
 p    1 1.00
                0.1517                   1
 d    1 1.00
                  0.55                   1

2 0
 s    8 1.00
                  6665  0.00069158396281299
                  1000  0.0053257961529341
                   228   0.027060721042034
                 64.71    0.10165684614077
                 21.06     0.2745748236174
                 7.495    0.44829431892377
                 2.797    0.28490261071525
                0.5215   0.015194859206082
 s    8 1.00
                  6665  -0.00029326965268655
                  1000  -0.0023180354739745
                   228  -0.011499786038565
                 64.71  -0.046826727009787
                 21.06   -0.12846616875047
                 7.495   -0.30126627246289
                 2.797   -0.25563070233011
                0.5215      1.093793361012
 s    1 1.00
                0.1596                   1
 p    3 1.00
                 9.439   0.056979251590039
                 2.002    0.31320721150073
                0.5456    0.76037674173753
 p    1 1.00
                0.1517                   1
 d    1 1.00
                  0.55                   1

3 0
 s    3 1.00
                 13.01   0.033498726389998
                 1.962    0.23480080117413
                0.4446     0.8136829578829
 s    1 1.00
                 0.122                   1
 p    1 1.00
                 0.727                   1

4 0
 s    8 1.00
                 14710  0.00072067370873197
                  2207  0.0055504869689163
                 502.8   0.028254207662589
                 142.6    0.10639582836653
                 46.47    0.28668420124307
                  16.7    0.44843796582416
                 6.356    0.26464118141135
                 1.316   0.015326060993048
 s    8 1.00
                 14710  -0.00032119389049893
                  2207  -0.0025461915683188
                 502.8  -0.012643359507821
                 142.6   -0.05195749170489
                 46.47   -0.14344713812646
                  16.7   -0.33243762329603
                 6.356   -0.21865906750347
                 1.316     1.0955904138622
 s    1 1.00
                0.3897                   1
 p    3 1.00
                 22.67   0.064834021493887
                 4.977    0.34053535983101
                 1.347    0.73464640679382
 p    1 1.00
                0.3471                   1
 d    1 1.00
                  1.64                   1

5 0
 s    8 1.00
                 14710  0.00072067370873197
                  2207  0.0055504869689163
                 502.8   0.028254207662589
                 142.6    0.10639582836653
                 46.47    0.28668420124307
                  16.7    0.44843796582416
                 6.356    0.26464118141135
                 1.316   0.015326060993048
 s    8 1.00
                 14710  -0.00032119389049893
                  2207  -0.0025461915683188
                 502.8  -0.012643359507821
                 142.6   -0.05195749170489
                 46.47   -0.14344713812646
                  16.7   -0.33243762329603
                 6.356   -0.21865906750347
                 1.316     1.0955904138622
 s    1 1.00
                0.3897                   1
 p    3 1.00
                 22.67   0.064834021493887
                 4.977    0.34053535983101
                 1.347    0.73464640679382
 p    1 1.00
                0.3471                   1
 d    1 1.00
                  1.64                   1

6 0
 s    8 1.00
                 14710  0.00072067370873197
                  2207  0.0055504869689163
                 502.8   0.028254207662589
                 142.6    0.10639582836653
                 46.47    0.28668420124307
                  16.7    0.44843796582416
                 6.356    0.26464118141135
                 1.316   0.015326060993048
 s    8 1.00
                 14710  -0.00032119389049893
                  2207  -0.0025461915683188
                 502.8  -0.012643359507821
                 142.6   -0.05195749170489
                 46.47   -0.14344713812646
                  16.7   -0.33243762329603
                 6.356   -0.21865906750347
                 1.316     1.0955904138622
 s    1 1.00
                0.3897                   1
 p    3 1.00
                 22.67   0.064834021493887
                 4.977    0.34053535983101
                 1.347    0.73464640679382
 p    1 1.00
                0.3471                   1
 d    1 1.00
                  1.64                   1

7 0
 s    3 1.00
                 13.01   0.033498726389998
                 1.962    0.23480080117413
                0.4446     0.8136829578829
 s    1 1.00
                 0.122                   1
 p    1 1.00
                 0.727                   1

8 0
 s    8 1.00
                 14710  0.00072067370873197
                  2207  0.0055504869689163
                 502.8   0.028254207662589
                 142.6    0.10639582836653
                 46.47    0.28668420124307
                  16.7    0.44843796582416
                 6.356    0.26464118141135
                 1.316   0.015326060993048
 s    8 1.00
                 14710  -0.00032119389049893
                  2207  -0.0025461915683188
                 502.8  -0.012643359507821
                 142.6   -0.05195749170489
                 46.47   -0.14344713812646
                  16.7   -0.33243762329603
                 6.356   -0.21865906750347
                 1.316     1.0955904138622
 s    1 1.00
                0.3897                   1
 p    3 1.00
                 22.67   0.064834021493887
                 4.977    0.34053535983101
                 1.347    0.73464640679382
 p    1 1.00
                0.3471                   1
 d    1 1.00
                  1.64                   1

[5d]
[7f]
[9g]

[MO]
 Sym= A
 Ene=               0
 Spin= Alpha
 Occup=    1.00000
   1       1.0018715624121
   2    -0.00091048332268963
   3    -0.0096047137392174
   4    -0.00017525612982082
   5    -0.0027845046472285
   6    -0.00096429095466181
   7    -0.0017118701187512
   8    -0.001342444511889
   9    -0.00045642585699233
  10    0.00025427439911379
  11    4.2462284584123e-05
  12    -0.00015223546655332
  13    -0.0001067326694027
  14    0.00010358458207584
  15    -0.00020660771054172
  16    -0.00084626859981004
  17    0.0028811531397533
  18    0.0010864842878265
  19    -7.7139206487254e-05
  20    5.9965690012266e-05
  21    -0.0012548628625065
  22    2.1374445933028e-05
  23    -0.00025909956354194
  24    8.4815974015905e-05
  25    -3.9112737482465e-05
  26    -1.6559913540587e-05
  27    -0.00018047402968876
  28    -1.5592674174834e-05
  29    0.0001376648244839
  30    0.00059861498995301
  31    -7.0123781305626e-05
  32    2.1168637547326e-06
  33    -6.1681777773959e-05
  34    3.3257967045549e-06
  35    2.8085882790782e-05
  36    -0.0001943205604122
  37    -0.00011099354462432
  38    2.3669939592029e-05
  39    -2.1195613246234e-05
  40    -0.00017085246008498
  41    -8.9168047817113e-05
  42    -5.1117154718975e-05
  43    -1.1099151418794e-05
  44    -2.1560986945827e-06
  45    1.4054261493272e-06
  46    2.6976006139965e-05
  47    -2.4780717536194e-06
  48    -7.2128051510129e-06
  49    7.6960713998405e-05
  50    2.2775171765095e-05
  51    -0.00024044884822757
  52    -4.8923012830356e-05
  53    7.5223696239939e-05
  54    -0.00034233723116976
  55    3.0390333447591e-05
  56    1.8974946046645e-05
  57    -8.7630455450162e-06
  58    3.5376762465605e-06
  59    -1.3866598097982e-05
  60    1.6290510934208e-05
  61    1.2322699786261e-06
  62    0.00012546644019797
  63    -0.00013171588309008
  64    -0.00061779276269175
  65    -0.00044262042191072
  66    -0.00016238209881407
  67    -0.0011937323101964
  68    -0.00043643966530556
  69    -0.00010436174320202
  70    -0.0017112739761053
  71    -0.00024084832166536
  72    -0.00013141613649241
  73    -9.9952415313407e-05
  74    -2.0378901983003e-05
  75    -1.9389406781965e-05
  76    -0.0031149242978785
  77    0.00077883236426119
  78    4.4711463757665e-05
  79    0.00033506559175344
  80    0.0001058976491193
  81    0.00013229656432366
  82    -0.0001172250082716
  83    -0.00065835583612488
  84    -0.00044887886245481
  85    -0.0008793361158216
  86    0.00081223981206996
  87    -0.00041944040628748
  88    -0.0012024913793466
  89    0.0012423143422505
  90    1.366775131507e-06
  91    9.021121514566e-05
  92    0.00023560376980217
  93    0.0001247693890565
  94    -0.00010196852064473
 Sym= A
 Ene=               1
 Spin= Alpha
 Occup=    1.00000
   1    -0.00020660790193271
   2    -0.00084626594567739
   3    0.0028811555962001
   4    -0.0010864819003954
   5    8.2733902511074e-05
   6    -5.1972957006465e-05
   7     0.001254864249507
   8    -0.00025078407187615
   9    -6.8530918611166e-05
  10    0.00010126757053215
  11    2.8029473404318e-05
  12    -2.3474825812608e-05
  13    -0.00017097617914216
  14    3.142059257059e-05
  15       1.0018715618256
  16    -0.00091049987074518
  17    -0.0096047171555563
  18    0.00017524529545593
  19    4.621615851548e-05
  20    -0.0029463842190205
  21    0.0017118682666365
  22    3.0242617573497e-05
  23    -0.0014175937259777
  24    -8.5645263344346e-05
  25    -0.00011186012583593
  26    -9.3747081514811e-06
  27    -0.00030298383023283
  28    -4.4738654840249e-06
  29    -0.0031149352295216
  30    0.00077883014114794
  31    -4.4711263423273e-05
  32    -1.5088067263841e-05
  33    0.00035107905309327
  34    0.00012546665651156
  35    -0.00013171794862436
  36    -0.00061779440802463
  37    0.00044262282722379
  38    -0.0010662134140551
  39    -0.00056087206170314
  40    0.0004364415263732
  41    -0.0015723840078622
  42    -0.00068335916481501
  43    3.8107026621539e-05
  44    6.3167101498392e-05
  45    -0.00021719121866036
  46    0.00014067640885981
  47    0.00011685939953156
  48    0.00013229687311198
  49    -0.0001172289615204
  50    -0.0006583585254989
  51    0.00044888562042327
  52    0.0010640211504608
  53    -0.00054850951789871
  54    0.00041944516972904
  55    0.0015786791069528
  56    -0.00070507920071085
  57    3.5296588774838e-05
  58    6.496520556505e-05
  59    0.00022134455229149
  60    0.00014435920243153
  61    -0.00011964645945239
  62    3.325823496533e-06
  63    2.8084647358921e-05
  64    -0.00019432158878228
  65    0.00011099082714309
  66    -2.8013208989269e-05
  67    1.4988143941918e-05
  68    0.00017085022655997
  69    -1.7537372459161e-05
  70    -0.00010127682872196
  71    -1.6244830659308e-05
  72    3.0659576820237e-06
  73    3.5679344169871e-06
  74    2.4005205387654e-05
  75    1.1784960013999e-06
  76    0.00013766784509102
  77    0.00059861590581688
  78    7.0123978214645e-05
  79    -5.8686163952573e-05
  80    -1.9107139663475e-05
  81    -7.2128320187968e-06
  82    7.696151542361e-05
  83    2.2775369003898e-05
  84    0.00024045469069016
  85    8.7419704736561e-05
  86    -2.0245725995185e-05
  87    0.0003423410128024
  88    7.4361200054557e-06
  89     3.50466294808e-05
  90    -1.7332971102229e-05
  91    -2.368022846989e-06
  92    -1.0264928125834e-05
  93    1.1342712151662e-05
  94    -2.9027067953439e-06
 Sym= A
 Ene=               2
 Spin= Alpha
 Occup=    1.00000
   1    -3.5809175803429e-05
   2    7.6232241388295e-05
   3    0.0038033448351327
   4    -0.00027192742655447
   5    -0.00043001168373005
   6    0.00035980011348865
   7    0.00032892271101495
   8    -0.0014047395909977
   9    0.00064728165388876
  10    3.0627563865019e-06
  11    1.3692687157604e-05
  12    5.6079490979752e-05
  13    5.3507861155709e-05
  14    -6.9325551739726e-06
  15    6.2835825120051e-05
  16    9.0945651987933e-05
  17    -0.0014845465965801
  18    0.00014095864281707
  19    -3.3349382962641e-05
  20    1.4097292228907e-05
  21    0.00078403900395129
  22    0.00027907591124504
  23    1.8418475559365e-05
  24    5.283350274037e-05
  25    1.1783773972913e-05
  26    -4.8088505212832e-05
  27    -8.768965613638e-05
  28    -1.970243793375e-05
  29    5.7392560164852e-05
  30    -0.00016893621933102
  31    5.2387550185298e-05
  32    5.0783527530044e-06
  33    4.4184162758284e-06
  34    1.844294849562e-05
  35    3.9492466274533e-05
  36    5.577724195921e-05
  37    -4.7266163849098e-05
  38    -1.0160036506018e-05
  39    -4.8966500857078e-07
  40    0.00011363504202727
  41    4.4387482775284e-05
  42    1.2507881766459e-06
  43    9.9416351394325e-06
  44    1.1250659349554e-05
  45    -3.7826380858082e-06
  46    -2.0550743357005e-05
  47    -8.6342581735235e-07
  48    -3.1606786960431e-05
  49    -5.4731278189651e-05
  50    0.00015999189201536
  51    2.6697402788726e-05
  52    -3.4036030196516e-06
  53    4.4559011405452e-06
  54    -0.00017640959914553
  55    -3.6393360227495e-05
  56    6.4798323797829e-06
  57    1.4411620145836e-06
  58    1.533730387401e-06
  59    1.0417417349858e-06
  60    1.7703437073596e-06
  61    -5.2614269634079e-06
  62    0.00010396503229098
  63    0.00019161884850903
  64    -0.0007521550860662
  65    -8.1650458575006e-06
  66     -4.9880509809e-05
  67    -1.1329643901822e-05
  68    -4.8999414210615e-05
  69    0.00025643925516616
  70    -0.00033830128288453
  71    -2.4445340013899e-05
  72    -8.2852354427667e-06
  73    1.7173211250117e-05
  74    -5.8210153959065e-06
  75    1.6351688582235e-05
  76    -0.00021630442226915
  77    -0.00010288432911588
  78    1.5687222693086e-06
  79    0.00015364721753012
  80    -8.6435876904314e-05
  81       1.0010176785735
  82      -0.0043943594211
  83    -0.011644902474733
  84    0.0010436033318681
  85     0.002410671925918
  86    -0.0018935397070218
  87    -7.0756862807826e-05
  88    7.4607533553143e-05
  89    4.0993725199788e-05
  90    -1.4559621329285e-05
  91    4.9768800889094e-05
  92    0.00011280298933055
  93    6.1006868742982e-05
  94    -6.8111524543655e-05
 Sym= A
 Ene=               3
 Spin= Alpha
 Occup=    1.00000
   1    6.2831884368813e-05
   2    9.0951497551237e-05
   3    -0.0014844567617526
   4    -0.00014093348966138
   5    2.4637543117704e-05
   6    -2.6504712091245e-05
   7    -0.00078396652491028
   8    -7.8174701662188e-05
   9    0.00026855183435801
  10    2.3144271632766e-05
  11    1.449337320177e-05
  12    -3.5606430093911e-05
  13    -0.00010482957751956
  14    -1.7821509369955e-05
  15    -3.5851515033652e-05
  16    7.6052010157256e-05
  17    0.0038032273129376
  18    0.00027185120754911
  19    0.0004849765952978
  20    -0.00028088974760493
  21    -0.000328876778363
  22     0.001088707047668
  23    -0.0010986704680078
  24    -1.0706219251005e-05
  25    1.8168062166701e-06
  26    6.1857295569552e-05
  27    4.5558406653871e-05
  28    -1.5218871600301e-05
  29    -0.0002163082761996
  30    -0.00010282843235678
  31    -1.5785553174637e-06
  32    -0.00013378381810527
  33    0.00011481863314418
  34    0.00010396505812615
  35    0.00019162052476309
  36    -0.00075214487012602
  37    8.1660394100263e-06
  38    6.4251798725017e-06
  39    -5.0750929704144e-05
  40    4.899967979806e-05
  41    -0.00040559215714208
  42    0.00012526872170385
  43    2.1946783436758e-05
  44    -1.2533340261872e-05
  45    -2.3234603253159e-06
  46    2.0965051435974e-05
  47    1.3378462546277e-05
  48       1.0010177197212
  49    -0.0043921073198495
  50    -0.011642304932416
  51    -0.0010430108761968
  52    -0.0026029284864182
  53    0.0016172399200535
  54    7.1159739043799e-05
  55    1.3634914724931e-05
  56    8.3844758251254e-05
  57    2.0870913280342e-05
  58    4.6990112736963e-05
  59    9.7928451021395e-05
  60    8.1468874739668e-05
  61    -7.007764052699e-05
  62    1.8444569503026e-05
  63    3.9495738916101e-05
  64    5.5765943998455e-05
  65    4.7266065176736e-05
  66    3.0170442465885e-06
  67    -9.7132828431601e-06
  68    -0.00011364592668961
  69    -1.4000234374808e-05
  70    4.2134614186283e-05
  71    1.0383269771615e-05
  72    -3.0364915107625e-06
  73    -3.9685436066006e-06
  74    -2.0295758983338e-05
  75    -1.0867850658204e-05
  76    5.7391177954929e-05
  77    -0.00016889874258907
  78    -5.2387324686444e-05
  79    2.4132956547597e-06
  80    6.2820939748258e-06
  81    -3.1607383359316e-05
  82    -5.4739356898066e-05
  83    0.00015997201714923
  84    -2.6712899121379e-05
  85    5.3425088981559e-06
  86    -1.6677456456339e-06
  87    0.00017639560268072
  88    1.8530662075904e-05
  89    -3.1976004085319e-05
  90    -1.2421182954082e-06
  91    4.4189702738823e-06
  92    2.1689199542495e-06
  93    2.2200633222169e-07
  94    -3.239986672077e-06
 Sym= A
 Ene=               4
 Spin= Alpha
 Occup=    1.00000
   1    -2.7070119554449e-05
   2    8.6551428599073e-05
   3    0.0034833203723045
   4    -0.00029813384947847
   5    -0.00010718166461492
   6    -0.00054375589687776
   7    0.00018993460680184
   8    -0.00057534395911802
   9    -0.0014491388978186
  10    -6.6760540711428e-05
  11    -2.0755001336754e-05
  12    -2.9216772260905e-05
  13    3.2959696241522e-07
  14    -5.6305689294113e-06
  15    4.8546144401849e-05
  16    6.867777101088e-05
  17    -0.0013261041442164
  18    0.00016644232142756
  19    -2.9818652331864e-06
  20    -8.733208174889e-06
  21    0.00042836939367485
  22    0.00017571727718575
  23    0.00035765138910976
  24    9.1347166099543e-05
  25    -4.9263097824367e-06
  26    2.5936915188798e-05
  27    -4.6604865728891e-05
  28    -2.3893238103629e-05
  29    1.0911207368784e-05
  30    7.8877755776437e-05
  31    -1.0783132899156e-05
  32    -2.5066994238621e-05
  33    -1.0452328093668e-05
  34    1.5005928870201e-06
  35    4.8302697585347e-06
  36    0.00012123796443813
  37    -4.6450917858851e-05
  38    -2.8403183640295e-05
  39    -9.495051147684e-06
  40    0.00014611589032046
  41    7.2310630788946e-05
  42    9.2523529299386e-07
  43    1.8040479215814e-05
  44    -5.9066670001276e-07
  45    -1.0242991719671e-06
  46    -1.8321790782772e-05
  47    1.1555237809966e-05
  48    1.6570283416982e-05
  49    3.6921859221413e-05
  50    4.4013591384889e-05
  51    -4.4808654104801e-05
  52    7.0476622326631e-06
  53    1.2286771435096e-06
  54    0.00011083949006924
  55    -5.3030341421914e-05
  56    -2.7988785755954e-07
  57    8.5399701752566e-06
  58    -3.8869011611339e-06
  59    -3.9377137128734e-06
  60    -1.7987499602061e-05
  61    -1.1911582436018e-05
  62       1.0010119508588
  63    -0.0043638288805386
  64     -0.01156792221046
  65     0.001028822384855
  66    0.00056511086560894
  67    0.0029932326636663
  68    -4.965192895085e-05
  69    1.5739565409769e-05
  70    2.1864676998688e-06
  71    -0.0001223803679984
  72    -8.451372541749e-05
  73    -4.1649206695388e-05
  74    -2.6471079683779e-06
  75    -2.3266518419613e-05
  76    -0.00022596552360242
  77    -0.00013793145574457
  78    -1.0320446378745e-05
  79    6.2046646220748e-05
  80     0.000171469780045
  81    0.0001003560145296
  82    0.00018353686122143
  83    -0.00070587769908092
  84    -1.3094304732393e-06
  85    -4.671621395024e-05
  86    -1.819408133726e-05
  87    -7.2381436911124e-05
  88    -1.3052734196309e-05
  89    0.00041087069256651
  90    -1.9231815921465e-05
  91    1.7187406524723e-05
  92    2.0733824711134e-05
  93    -7.4884283911345e-06
  94    5.8426606215618e-06
 Sym= A
 Ene=               5
 Spin= Alpha
 Occup=    1.00000
   1    4.8545548847872e-05
   2    6.8694087974918e-05
   3    -0.0013260227136218
   4    -0.00016640232515839
   5    -7.1856574222567e-06
   6    -5.7906631451012e-06
   7    -0.00042831912784991
   8    0.0002759987922694
   9    0.00028745167727604
  10    2.0434186995812e-05
  11    2.4138572018483e-05
  12    5.5738815497565e-05
  13    -8.7545985234995e-05
  14    -3.5399270194281e-06
  15    -2.7079038772236e-05
  16    8.6501907334731e-05
  17    0.0034832726069123
  18    0.0002981196035809
  19    -0.00047424933170195
  20    -0.00028664610077058
  21    -0.00018989306461602
  22    -0.001164979791201
  23    -0.001036280362857
  24    5.1283262704397e-06
  25    1.237921270628e-05
  26    -5.9453891296773e-05
  27    4.1853971122493e-05
  28    1.7553173028911e-05
  29    -0.00022599807011136
  30    -0.00013795107386744
  31    1.0316285502416e-05
  32    0.00013991259685951
  33    0.0001169509692185
  34       1.0010119618646
  35    -0.0043632912462585
  36    -0.011567308249558
  37    -0.0010282585122428
  38    0.0026191719937593
  39    0.0015549821015205
  40    5.004133893718e-05
  41    -3.5126677865641e-06
  42    1.5681594099254e-05
  43    1.8563226397429e-05
  44    5.0773136915847e-05
  45    -0.00010088037657446
  46    7.8722828416113e-05
  47    7.1470750243795e-05
  48    0.0001003556014333
  49    0.00018353816788499
  50    -0.00070586821086981
  51    1.3084364622667e-06
  52     -1.1255755106e-06
  53    -5.012501194391e-05
  54    7.2377203270465e-05
  55    0.00039055021523123
  56    0.00012825977902149
  57    2.351008290286e-05
  58    -1.1369254479492e-05
  59    2.7702372293217e-06
  60    1.7189540641754e-05
  61    -1.4153032505019e-05
  62    1.501614848215e-06
  63    4.8358902801107e-06
  64    0.00012123990452408
  65    4.6456969015027e-05
  66    7.8852800853473e-07
  67    -2.9935472268834e-05
  68    -0.00014612049095637
  69    -2.3865278267045e-05
  70    6.8268394787423e-05
  71    7.5866296093209e-06
  72    -1.0655849921851e-05
  73    3.3693379722047e-06
  74    -2.4358069905307e-05
  75    4.5079462220019e-06
  76    1.0895847351095e-05
  77    7.8858040846801e-05
  78    1.078561441529e-05
  79    -1.2483991982255e-06
  80    -2.713052497563e-05
  81    1.6570448844778e-05
  82    3.692250274489e-05
  83    4.4013024262043e-05
  84    4.480437168189e-05
  85    -1.256762269638e-06
  86    7.0413801765884e-06
  87    -0.00011084896022887
  88    1.7871809470351e-05
  89    -4.9930205125707e-05
  90    8.7919605061646e-06
  91    1.2522507691188e-05
  92    -4.0435746652964e-06
  93    -1.7841822353246e-05
  94    -4.2104675157657e-07
 Sym= A
 Ene=               6
 Spin= Alpha
 Occup=    1.00000
   1    -0.0012175782097924
   2    -0.011945096753859
   3    -0.017121227357111
   4      0.02038883613068
   5     0.034102092744758
   6    -0.022791891683212
   7     0.018487363654913
   8     0.038356653279714
   9    -0.024461867800812
  10     0.022122498103951
  11    -0.019653935642878
  12    -0.027410902787238
  13    -0.0054845991613243
  14    -0.010263751745295
  15    -0.003014987109284
  16    -0.016643989838026
  17    -0.016568590716733
  18     0.026522825200625
  19    -0.0014605492007033
  20     0.001948806518525
  21     0.012565616033576
  22     -0.01057563766405
  23    -0.013826221930595
  24     0.001387378526111
  25    -0.00019788111456523
  26    0.00054640218732808
  27    0.00048230848375467
  28    -0.00075252175765198
  29     0.010792339466939
  30     0.018261562254178
  31    0.0012837264303773
  32    0.00024535835556772
  33    -0.0010822440540155
  34    0.00085029703816967
  35    0.00046903442621672
  36    -0.0099556545000473
  37    -0.0018648139565484
  38    -0.0032516976190471
  39    0.0020799160619934
  40    -0.0031556121849133
  41    -0.0046894264851191
  42    0.00071764802670398
  43    0.00023879564081846
  44    0.00048658733153667
  45    -0.00014229522894064
  46    9.5667075737558e-05
  47    0.00010106528284212
  48    -0.00046483324391381
  49    -0.0037629956529824
  50    -0.0037968413776677
  51    0.0057672108227402
  52    0.0039480105515654
  53    0.0032034503054551
  54    0.0012276830933038
  55    0.0037834091373824
  56    0.0012371679521463
  57     8.69152696111e-05
  58    0.00069846258606524
  59    0.00012279427252122
  60    0.00032785216072602
  61    -0.00014922703273251
  62    -0.00063311594140558
  63    -0.0063826347250378
  64    -0.003504632313933
  65      0.40233844691381
  66      0.47261383114414
  67     -0.23378270304242
  68      0.27891990174543
  69      0.32539968981557
  70     -0.15898037227814
  71    -0.0088127196475802
  72    0.0066483477994975
  73    0.0088441260245596
  74    0.00072915207650506
  75    0.0058147359401735
  76    -0.0099763225199684
  77    -0.0094292397957392
  78    0.00064256632448665
  79    -0.00078966683728385
  80    0.00034912987532864
  81    -0.0014896513435034
  82     0.015233941183593
  83     0.050672586290724
  84    0.0034703249131972
  85     0.020669869493093
  86    -0.033403430788364
  87    0.0034244075990298
  88      0.01980337819276
  89    -0.033126920674264
  90    -0.00024293826637007
  91    -0.000627680245938
  92    -0.00028350520698381
  93    0.0001250177494559
  94    -0.00048563035818257
 Sym= A
 Ene=               7
 Spin= Alpha
 Occup=    1.00000
   1    0.0013605192325909
   2     0.020331031329204
   3     0.064493355202841
   4      0.03592272418305
   5    -0.0012534299182283
   6    -0.0041862614165503
   7     0.039182764165292
   8     0.021729351412874
   9    0.0021353813910918
  10    0.0003094620729652
  11    -0.0016114690204282
  12    -0.0010943739067055
  13    0.0011838783487161
  14    -0.00078266886932157
  15    0.0021341070446896
  16     0.002247973517629
  17    -0.025117102328844
  18     0.011143450674234
  19    -0.0074946318693433
  20     0.014434049815532
  21     0.038925177633181
  22    -0.025135581276122
  23     0.013502445324401
  24    -0.026542275393698
  25    -0.0083474148843959
  26     -0.01934507993231
  27     0.006176416154787
  28     -0.02500932050365
  29    -0.040847736997487
  30    -0.045357893809223
  31    -0.0022962169201629
  32    0.0030678599801874
  33    -0.00064719705009144
  34    0.0010608325040201
  35    -0.00081483035570088
  36    -0.012616116117648
  37      0.48687756515732
  38    -0.081212297879593
  39      0.45156689889212
  40       0.3371318972628
  41    -0.058297985525076
  42      0.31000218948449
  43    0.0085016511887488
  44    0.0018985691324543
  45    0.0069132304822109
  46    -0.0019773745554398
  47    0.0091960626948478
  48    -0.00087759858873503
  49    0.0022048259228045
  50     0.016187182316083
  51    -0.0043640448079605
  52    -0.0073491526070085
  53    -0.0011302576412147
  54    -0.0073375874951136
  55    -0.0063273741323488
  56     0.001324411408625
  57    -0.00047239535006799
  58    -8.3230437453004e-05
  59     -0.00046090095679
  60    0.00033320459337093
  61    -0.00043880936907943
  62    0.0011572785072349
  63     0.006005355752826
  64     0.001955581884812
  65    0.0079195445148531
  66    -0.0054773814726066
  67    -0.00028679273789578
  68    -0.0030644475606759
  69    -0.0037782018721229
  70    0.0020475890822336
  71    0.00078846704127453
  72    0.00056581990033092
  73    -5.2535671597444e-05
  74    -0.00053065032571135
  75    0.00091187831030795
  76    -0.010727469401321
  77      -0.0177315369735
  78    0.0019459498698096
  79    0.00079704847368923
  80    0.00012107202989958
  81    -0.00058606223679646
  82    -0.0006783396563195
  83    0.0054815743102008
  84    -0.0027313717648746
  85    -0.00054345221293143
  86    -0.00048521207542457
  87    -0.0066127769019758
  88    -0.0011672072408097
  89    -0.0022190247408393
  90    7.0270227566211e-05
  91    -0.00022198546486195
  92    -9.1765519059627e-05
  93    0.00023169206115173
  94    0.00040203764132933
 Sym= A
 Ene=               8
 Spin= Alpha
 Occup=    1.00000
   1    -0.0023043632341627
   2    -0.0023567383142622
   3     0.021390346528078
   4     0.009036267601831
   5    -0.010653453400621
   6    -0.012786520292522
   7     0.036939394809206
   8    -0.0040332903574899
   9    -0.031590939426816
  10    -0.015591188921066
  11     0.019803204816674
  12    -0.0018521364733675
  13    -0.029358137375332
  14    -0.015223669486175
  15    -0.0025981465438554
  16    -0.024076811524054
  17    -0.055711687275167
  18     0.032869658406552
  19    4.6969877281907e-05
  20    0.00083626267692294
  21     0.032507361055885
  22    -0.017058500254408
  23     0.019389402984626
  24    0.00010959973345043
  25    -0.00019378459585496
  26    -0.001561683941078
  27    -0.0016597685524646
  28    -0.0011631451983373
  29    -0.0048625620511907
  30    -0.0010580178248528
  31    4.712837298781e-05
  32    0.00060650802502196
  33    0.00060114713557672
  34    -0.00045879150560085