[Molden Format]
made by pyscf v[2.0.1]
[Atoms] (AU)
C   1   6     0.00000000000000     0.00000000000000     0.00000000000000
C   2   6     2.85272299873892     0.00000000000000     0.00000000000000
H   3   1     3.62066923017674     0.00000000000000     1.90331545357504
F   4   9     3.65943188126013    -2.04308229183900    -1.24074875274501
F   5   9     3.65943188126013     2.04308229183900    -1.24074875274501
F   6   9    -0.80670888252121    -2.04308229183900     1.24074875274501
H   7   1    -0.76794623143782     0.00000000000000    -1.90331545357504
F   8   9    -0.80670888252121     2.04308229183900     1.24074875274501
[GTO]
1 0
 s    8 1.00
                  6665  0.00069158396281299
                  1000  0.0053257961529341
                   228   0.027060721042034
                 64.71    0.10165684614077
                 21.06     0.2745748236174
                 7.495    0.44829431892377
                 2.797    0.28490261071525
                0.5215   0.015194859206082
 s    8 1.00
                  6665  -0.00029326965268655
                  1000  -0.0023180354739745
                   228  -0.011499786038565
                 64.71  -0.046826727009787
                 21.06   -0.12846616875047
                 7.495   -0.30126627246289
                 2.797   -0.25563070233011
                0.5215      1.093793361012
 s    1 1.00
                0.1596                   1
 p    3 1.00
                 9.439   0.056979251590039
                 2.002    0.31320721150073
                0.5456    0.76037674173753
 p    1 1.00
                0.1517                   1
 d    1 1.00
                  0.55                   1

2 0
 s    8 1.00
                  6665  0.00069158396281299
                  1000  0.0053257961529341
                   228   0.027060721042034
                 64.71    0.10165684614077
                 21.06     0.2745748236174
                 7.495    0.44829431892377
                 2.797    0.28490261071525
                0.5215   0.015194859206082
 s    8 1.00
                  6665  -0.00029326965268655
                  1000  -0.0023180354739745
                   228  -0.011499786038565
                 64.71  -0.046826727009787
                 21.06   -0.12846616875047
                 7.495   -0.30126627246289
                 2.797   -0.25563070233011
                0.5215      1.093793361012
 s    1 1.00
                0.1596                   1
 p    3 1.00
                 9.439   0.056979251590039
                 2.002    0.31320721150073
                0.5456    0.76037674173753
 p    1 1.00
                0.1517                   1
 d    1 1.00
                  0.55                   1

3 0
 s    3 1.00
                 13.01   0.033498726389998
                 1.962    0.23480080117413
                0.4446     0.8136829578829
 s    1 1.00
                 0.122                   1
 p    1 1.00
                 0.727                   1

4 0
 s    8 1.00
                 14710  0.00072067370873197
                  2207  0.0055504869689163
                 502.8   0.028254207662589
                 142.6    0.10639582836653
                 46.47    0.28668420124307
                  16.7    0.44843796582416
                 6.356    0.26464118141135
                 1.316   0.015326060993048
 s    8 1.00
                 14710  -0.00032119389049893
                  2207  -0.0025461915683188
                 502.8  -0.012643359507821
                 142.6   -0.05195749170489
                 46.47   -0.14344713812646
                  16.7   -0.33243762329603
                 6.356   -0.21865906750347
                 1.316     1.0955904138622
 s    1 1.00
                0.3897                   1
 p    3 1.00
                 22.67   0.064834021493887
                 4.977    0.34053535983101
                 1.347    0.73464640679382
 p    1 1.00
                0.3471                   1
 d    1 1.00
                  1.64                   1

5 0
 s    8 1.00
                 14710  0.00072067370873197
                  2207  0.0055504869689163
                 502.8   0.028254207662589
                 142.6    0.10639582836653
                 46.47    0.28668420124307
                  16.7    0.44843796582416
                 6.356    0.26464118141135
                 1.316   0.015326060993048
 s    8 1.00
                 14710  -0.00032119389049893
                  2207  -0.0025461915683188
                 502.8  -0.012643359507821
                 142.6   -0.05195749170489
                 46.47   -0.14344713812646
                  16.7   -0.33243762329603
                 6.356   -0.21865906750347
                 1.316     1.0955904138622
 s    1 1.00
                0.3897                   1
 p    3 1.00
                 22.67   0.064834021493887
                 4.977    0.34053535983101
                 1.347    0.73464640679382
 p    1 1.00
                0.3471                   1
 d    1 1.00
                  1.64                   1

6 0
 s    8 1.00
                 14710  0.00072067370873197
                  2207  0.0055504869689163
                 502.8   0.028254207662589
                 142.6    0.10639582836653
                 46.47    0.28668420124307
                  16.7    0.44843796582416
                 6.356    0.26464118141135
                 1.316   0.015326060993048
 s    8 1.00
                 14710  -0.00032119389049893
                  2207  -0.0025461915683188
                 502.8  -0.012643359507821
                 142.6   -0.05195749170489
                 46.47   -0.14344713812646
                  16.7   -0.33243762329603
                 6.356   -0.21865906750347
                 1.316     1.0955904138622
 s    1 1.00
                0.3897                   1
 p    3 1.00
                 22.67   0.064834021493887
                 4.977    0.34053535983101
                 1.347    0.73464640679382
 p    1 1.00
                0.3471                   1
 d    1 1.00
                  1.64                   1

7 0
 s    3 1.00
                 13.01   0.033498726389998
                 1.962    0.23480080117413
                0.4446     0.8136829578829
 s    1 1.00
                 0.122                   1
 p    1 1.00
                 0.727                   1

8 0
 s    8 1.00
                 14710  0.00072067370873197
                  2207  0.0055504869689163
                 502.8   0.028254207662589
                 142.6    0.10639582836653
                 46.47    0.28668420124307
                  16.7    0.44843796582416
                 6.356    0.26464118141135
                 1.316   0.015326060993048
 s    8 1.00
                 14710  -0.00032119389049893
                  2207  -0.0025461915683188
                 502.8  -0.012643359507821
                 142.6   -0.05195749170489
                 46.47   -0.14344713812646
                  16.7   -0.33243762329603
                 6.356   -0.21865906750347
                 1.316     1.0955904138622
 s    1 1.00
                0.3897                   1
 p    3 1.00
                 22.67   0.064834021493887
                 4.977    0.34053535983101
                 1.347    0.73464640679382
 p    1 1.00
                0.3471                   1
 d    1 1.00
                  1.64                   1

[5d]
[7f]
[9g]

[MO]
 Sym= A
 Ene=               0
 Spin= Alpha
 Occup=    1.00000
   1       1.0018566062161
   2    -0.00095079036375512
   3    -0.009451289176314
   4    -0.00016384634581029
   5    6.9538548826217e-10
   6    0.0030502610215832
   7    -0.0016202811423215
   8    6.8623113423936e-11
   9     0.001608443226249
  10    -0.00010347334728281
  11    -0.00012154613605276
  12    1.2841876566083e-10
  13    -0.00031056030460296
  14    -6.7919365666722e-11
  15    -0.00019380091663622
  16    -0.00085515866903238
  17    0.0027204545877968
  18    0.0010568434054594
  19    1.3369860312517e-10
  20    0.00012514401729609
  21    -0.0011178094991187
  22    3.4383368931744e-11
  23    -0.00035280856726119
  24    7.1176768285809e-05
  25    -2.212197118829e-05
  26    -1.5382055400734e-11
  27    -0.00019993609359819
  28    -2.4782082594648e-11
  29    -1.0452974573265e-05
  30    0.00038014282674973
  31    -6.358327699365e-05
  32    5.8221515301472e-12
  33    -3.0798568903509e-05
  34    -9.6942674961069e-06
  35    7.205285060012e-05
  36    3.1843639157563e-05
  37    -0.00021636189373083
  38    0.00011540935003481
  39    -1.3914125694686e-05
  40    -0.00035473895882827
  41    -1.9378516764704e-05
  42    1.5385134181276e-05
  43    -1.3030550045616e-05
  44    -6.0445810122167e-06
  45    1.102391260731e-05
  46    1.6419571355904e-05
  47    2.4233177028554e-06
  48    -9.6942731069476e-06
  49    7.2052911643918e-05
  50    3.1843668379048e-05
  51    -0.00021636223593728
  52    -0.00011540925167243
  53    -1.3913911758652e-05
  54    -0.00035473919410121
  55    1.9378590689507e-05
  56    1.5385275530387e-05
  57    -1.3030547314736e-05
  58    -6.0445893321989e-06
  59    -1.1023918911183e-05
  60    1.6419575596058e-05
  61    -2.4233111632116e-06
  62    0.00013772173301136
  63    -0.00010642746476176
  64    -0.0007042450572393
  65    -0.0004491632106242
  66    -0.0010557628317928
  67    0.00056228520052524
  68    -0.00041658117292164
  69    -0.0016128247675533
  70    0.00067334909984383
  71    3.8281677961251e-05
  72    6.3926230356257e-05
  73    0.00021979352159676
  74    0.00014706584431136
  75    -0.00011973928860105
  76    -0.0030652008956423
  77    0.00086940602067093
  78    5.487241493115e-05
  79    1.9936477078278e-11
  80    -0.00032725059860565
  81    0.00013772167810244
  82    -0.00010642690078832
  83    -0.00070424462813469
  84    -0.00044916274477679
  85    0.0010557616159147
  86    0.00056228462376019
  87    -0.00041658088865447
  88    0.0016128240001041
  89    0.00067334876024134
  90    3.8281673879841e-05
  91    6.3926209720021e-05
  92    -0.00021979348048121
  93    0.00014706582425059
  94    0.0001197392594895
 Sym= A
 Ene=               1
 Spin= Alpha
 Occup=    1.00000
   1    -0.00019380087030803
   2    -0.00085515828017343
   3    0.0027204549079098
   4    -0.0010568424209814
   5    6.1037569344702e-11
   6    -0.00012514396467157
   7    0.0011178097531336
   8    2.662207919314e-11
   9    0.00035280860947284
  10    7.1176709030844e-05
  11    -2.2121973671452e-05
  12    2.2662611127167e-12
  13    -0.00019993597053796
  14    2.0659403241082e-11
  15       1.0018566062649
  16    -0.00095078908917679
  17    -0.0094512886675428
  18    0.00016384571710381
  19    6.7697722717561e-10
  20    -0.0030502612481031
  21    0.0016202809123094
  22    3.224406978855e-11
  23    -0.0016084432247499
  24    -0.0001034733811742
  25    -0.00012154616140379
  26    -1.3950804489529e-10
  27    -0.00031056028072503
  28    8.1691884934933e-11
  29    -0.0030652006709722
  30    0.00086940589771935
  31    -5.4872437713094e-05
  32    2.0728901773031e-11
  33    0.00032725055565822
  34    0.00013772171952883
  35    -0.00010642739684315
  36    -0.00070424510176399
  37    0.00044916292116677
  38    -0.0010557624863971
  39    -0.00056228490821097
  40    0.00041658103770712
  41    -0.001612824572352
  42    -0.00067334892286944
  43    3.8281669828759e-05
  44    6.3926215193388e-05
  45    -0.00021979349993034
  46    0.00014706583301625
  47    0.00011973926363655
  48    0.00013772168408145
  49    -0.00010642686760387
  50    -0.0007042446861243
  51    0.00044916273385438
  52    0.0010557608884761
  53    -0.00056228461202887
  54    0.00041658094755908
  55    0.0016128235347254
  56    -0.00067334877521238
  57    3.8281659684543e-05
  58    6.3926201001899e-05
  59    0.00021979345980221
  60    0.00014706580431687
  61    -0.00011973923647641
  62    -9.6942663775789e-06
  63    7.2052794948126e-05
  64    3.1843526188131e-05
  65    0.00021636172755081
  66    0.00011540930744069
  67    1.3914151695773e-05
  68    0.00035473878356594
  69    -1.9378549587767e-05
  70    -1.5385119217748e-05
  71    -1.3030553016966e-05
  72    -6.0445858468848e-06
  73    -1.1023909926747e-05
  74    1.6419577454477e-05
  75    -2.4233113206117e-06
  76    -1.0453187658133e-05
  77    0.00038014265443993
  78    6.3583294126788e-05
  79    3.2900178847003e-12
  80    3.0798554813076e-05
  81    -9.6942662018405e-06
  82    7.2052932019903e-05
  83    3.1843661258902e-05
  84    0.00021636180068542
  85    -0.00011540910689233
  86    1.3913936253812e-05
  87    0.00035473883401888
  88    1.9378685209845e-05
  89    -1.5385266793787e-05
  90    -1.3030548278059e-05
  91    -6.0445897430279e-06
  92    1.1023913873578e-05
  93    1.6419580693952e-05
  94    2.4233108964117e-06
 Sym= A
 Ene=               2
 Spin= Alpha
 Occup=    1.00000
   1    5.9460480414604e-05
   2    8.479340545857e-05
   3    -0.0014483251871529
   4    -0.00013663811029844
   5    -2.7725734152971e-05
   6    -1.8456573617318e-05
   7    -0.00080343647078572
   8    0.00019072353506109
   9    0.00017767850751454
  10    3.0064531024772e-05
  11    2.5875120554095e-05
  12    4.0500994187058e-05
  13    -0.0001004316890879
  14    3.9639823355795e-06
  15    -2.9763495283523e-05
  16    8.8358638499561e-05
  17    0.0037888273461499
  18    0.00026899993308953
  19    -0.00048003753091172
  20    -0.00029203220165682
  21    -0.00030881919192018
  22    -0.0011484184086814
  23    -0.00098925191801558
  24    1.0705324194699e-06
  25    5.8243978046161e-06
  26    -5.5113717262588e-05
  27    5.1325407031963e-05
  28    1.5702765366088e-05
  29    -0.00024204958022806
  30    -0.00014182789627646
  31    2.0589564862584e-06
  32    0.00014159565786099
  33    0.0001185502222692
  34       1.0010127192785
  35    -0.0044214961204308
  36    -0.011644225077912
  37    -0.0010388063245661
  38    0.0026470266099754
  39    0.0015687122973952
  40    6.1323877262879e-05
  41    1.8460503686246e-05
  42    4.7693937320643e-05
  43    1.6657528206519e-05
  44    4.7304462849703e-05
  45    -0.00010066752248372
  46    7.8858688614768e-05
  47    6.9482614948738e-05
  48    9.3291978222538e-05
  49    0.00017021500416462
  50    -0.0006813195770814
  51    5.6112419720484e-06
  52    -2.0025411546573e-06
  53    -4.9089099094177e-05
  54    4.9723530789667e-05
  55    0.00038941582618972
  56    0.00011924238341584
  57    2.1404425077176e-05
  58    -1.2553744561688e-05
  59    2.8211587992498e-06
  60    2.0115141368274e-05
  61    -1.2563023719975e-05
  62    2.3333536126913e-05
  63    5.0007783614376e-05
  64    -6.3420367214293e-06
  65    3.0084071814504e-05
  66    -5.1852436259147e-06
  67    1.0550761507744e-05
  68    -6.125154765211e-05
  69    1.5612781616481e-05
  70    -2.4297882627866e-05
  71    7.7427043050544e-06
  72    1.1442850141231e-05
  73    1.7624634881761e-06
  74    -1.809981331853e-05
  75    7.6571746380651e-07
  76    9.8927918037216e-05
  77    -0.00015312006947098
  78    -5.6523382655543e-05
  79    1.4143057822632e-05
  80    -9.3415876608484e-06
  81    -2.4961550724863e-05
  82    -4.2168966672619e-05
  83    0.00011792060491523
  84    -2.7842958105995e-05
  85    -6.1691696920993e-06
  86    1.8475013094143e-06
  87    0.00017559212985625
  88    -1.74920624326e-05
  89    -1.9528420080441e-05
  90    1.6121532714681e-06
  91    4.1413275368476e-06
  92    -2.0412778001678e-06
  93    2.3694352945482e-06
  94    3.4788386854004e-06
 Sym= A
 Ene=               3
 Spin= Alpha
 Occup=    1.00000
   1    -2.9763988647442e-05
   2    8.8356328204523e-05
   3    0.0037888240040379
   4    -0.00026900004157341
   5    0.00048003500829538
   6    0.00029203021261624
   7    0.00030881488796064
   8    0.0011484197222646
   9    0.00098925234119473
  10    1.0687975817348e-06
  11    5.8229582231235e-06
  12    -5.5114508416851e-05
  13    5.1326595565721e-05
  14    1.5699698606879e-05
  15    5.9460618452912e-05
  16    8.4795850483863e-05
  17    -0.0014483169868096
  18    0.00013663419636982
  19    2.7725234095616e-05
  20    1.8456706263727e-05
  21    0.00080343293726501
  22    -0.00019072604086833
  23    -0.000177679496133
  24    3.0064548413606e-05
  25    2.5875179359707e-05
  26    4.0500708493021e-05
  27    -0.00010043151127492
  28    3.9640801068061e-06
  29    9.8928250001751e-05
  30    -0.00015312129420662
  31    5.6523496630043e-05
  32    -1.4143031585736e-05
  33    9.3415703371088e-06
  34    -2.4961423078627e-05
  35    -4.2169273649894e-05
  36    0.00011791826878459
  37    2.7844065708619e-05
  38    6.1686824711083e-06
  39    -1.8484480607164e-06
  40    -0.00017559112729664
  41    1.7491294914614e-05
  42    1.9527478059087e-05
  43    1.6121272821077e-06
  44    4.1412849939269e-06
  45    -2.0412932231184e-06
  46    2.369492211709e-06
  47    3.4787784524233e-06
  48    2.3333557248886e-05
  49    5.0007923538515e-05
  50    -6.341944938385e-06
  51    -3.0084138459254e-05
  52    5.1856408933262e-06
  53    -1.0550300274521e-05
  54    6.1251934984537e-05
  55    -1.5612256792882e-05
  56    2.429840512158e-05
  57    7.7427141235799e-06
  58    1.1442856050516e-05
  59    1.7624462040187e-06
  60    -1.809980964488e-05
  61    7.657740207115e-07
  62    9.3291923621279e-05
  63    0.00017021430288644
  64    -0.00068131976619018
  65    -5.610475970085e-06
  66    2.0009227867799e-06
  67    4.9090151887484e-05
  68    -4.9722596011871e-05
  69    -0.00038941695576524
  70    -0.0001192418590446
  71    2.1404418970914e-05
  72    -1.255379321476e-05
  73    2.8211696965344e-06
  74    2.0115233787804e-05
  75    -1.2563077461726e-05
  76    -0.00024205289738616
  77    -0.00014183034922204
  78    -2.0586299122397e-06
  79    -0.00014159604230462
  80    -0.00011855023800675
  81       1.0010127202043
  82    -0.0044214512180446
  83    -0.011644174825952
  84    0.0010387434725736
  85    -0.0026470173799477
  86    -0.0015687292474005
  87    -6.1367407185137e-05
  88    -1.8453850977909e-05
  89    -4.7705557479026e-05
  90    1.6658048195889e-05
  91    4.7304955379589e-05
  92    -0.00010066722932936
  93    7.8858306131369e-05
  94    6.9483708877971e-05
 Sym= A
 Ene=               4
 Spin= Alpha
 Occup=    1.00000
   1    5.9460400179929e-05
   2    8.4795843819019e-05
   3    -0.0014483136734969
   4    -0.00013663346195241
   5    2.7724455450006e-05
   6    -1.8456173859269e-05
   7    -0.0008034300082873
   8    -0.00019072569602711
   9    0.00017768199927451
  10    3.0064570089479e-05
  11    2.5875566071629e-05
  12    -4.0500525678304e-05
  13    -0.00010043149508357
  14    -3.9646632079729e-06
  15    -2.976600500193e-05
  16    8.8347287079124e-05
  17    0.0037888187822036
  18    0.00026899581567386
  19    0.00048002434867514
  20    -0.00029202381411027
  21    -0.00030881321540388
  22    0.0011484192302284
  23    -0.00098925454368979
  24    1.0688076885349e-06
  25    5.8225795930183e-06
  26    5.5114166257953e-05
  27    5.1326336915347e-05
  28    -1.5699334376169e-05
  29    -0.00024205218011459
  30    -0.00014182680546017
  31    2.058223076341e-06
  32    -0.00014159647348356
  33    0.00011855031550399
  34    9.329193101515e-05
  35    0.00017021442711422
  36    -0.00068131984871889
  37    5.6107222275441e-06
  38    2.0016638824595e-06
  39    -4.9090233392879e-05
  40    4.9722698048647e-05
  41    -0.00038941626136338
  42    0.00011924190325461
  43    2.1404536819906e-05
  44    -1.2553868738264e-05
  45    -2.8211726392961e-06
  46    2.0115368474975e-05
  47    1.2563077697234e-05
  48       1.0010127221276
  49    -0.0044213475911648
  50    -0.011644054842924
  51    -0.0010387238924287
  52    -0.0026469756064979
  53    0.0015686987648355
  54    6.1380543614755e-05
  55    -1.8425318760748e-05
  56    4.7684824504148e-05
  57    1.6658132465729e-05
  58    4.7305356178875e-05
  59    0.00010066807717147
  60    7.8858809735729e-05
  61    -6.9484263040517e-05
  62    -2.4961469118386e-05
  63    -4.2169638766678e-05
  64    0.00011791755274516
  65    -2.7844709573928e-05
  66    6.1682601879961e-06
  67    1.8486078603954e-06
  68    0.00017559055265371
  69    1.7490837480962e-05
  70    -1.9527680194286e-05
  71    1.6121126760495e-06
  72    4.141266166127e-06
  73    2.0412706590868e-06
  74    2.3695177866822e-06
  75    -3.4787462158179e-06
  76    9.8928274915139e-05
  77    -0.00015311901254946
  78    -5.6523501677679e-05
  79    -1.4143081544107e-05
  80    -9.3415182680105e-06
  81    2.3333672154171e-05
  82    5.000809761942e-05
  83    -6.343143153668e-06
  84    3.0084039323257e-05
  85    5.1854930584242e-06
  86    1.0550241014147e-05
  87    -6.1252327922012e-05
  88    -1.5611875609585e-05
  89    -2.4298638443977e-05
  90    7.7427160924943e-06
  91    1.1442865946764e-05
  92    -1.7624624285705e-06
  93    -1.8099807285151e-05
  94    -7.6577633602915e-07
 Sym= A
 Ene=               5
 Spin= Alpha
 Occup=    1.00000
   1    -2.9766119800722e-05
   2    8.8347026933476e-05
   3    0.0037888200838472
   4    -0.00026899442306483
   5    -0.00048002441723845
   6    0.00029202355691607
   7    0.00030881662465981
   8    -0.0011484185885989
   9    0.00098925433060189
  10    1.0699336905206e-06
  11    5.8238795952359e-06
  12    5.5113586181246e-05
  13    5.1324861221395e-05
  14    -1.5701921428967e-05
  15    5.9460186254764e-05
  16    8.4793624145328e-05
  17    -0.0014483197131827
  18    0.00013663675679615
  19    -2.7724743942158e-05
  20    1.8456014854105e-05
  21    0.00080343238674216
  22    0.00019072347291161
  23    -0.00017768158723275
  24    3.0064557440009e-05
  25    2.5875621550669e-05
  26    -4.0500731540352e-05
  27    -0.00010043162480848
  28    -3.9647252604726e-06
  29    9.8928021576234e-05
  30    -0.00015311749084161
  31    5.6523414761068e-05
  32    1.4143121882881e-05
  33    9.3415247411625e-06
  34    2.3333670376947e-05
  35    5.0007951538057e-05
  36    -6.3435635571495e-06
  37    -3.0083890854694e-05
  38    -5.1851016007394e-06
  39    -1.0550688035032e-05
  40    6.1252103706521e-05
  41    1.561220187736e-05
  42    2.4298204367229e-05
  43    7.742706577686e-06
  44    1.1442857943626e-05
  45    -1.7624838403588e-06
  46    -1.8099802162454e-05
  47    -7.6572186738631e-07
  48    -2.4961577043495e-05
  49    -4.2169473506058e-05
  50    0.00011791940394542
  51    2.7843938324067e-05
  52    -6.1686305869604e-06
  53    -1.8479741611483e-06
  54    -0.0001755912885578
  55    -1.7491425993795e-05
  56    1.9528437700815e-05
  57    1.6121312188367e-06
  58    4.1413003507226e-06
  59    2.0412530720888e-06
  60    2.3694720168885e-06
  61    -3.4787938766237e-06
  62       1.0010127218474
  63    -0.004421357759899
  64    -0.011644065203462
  65    0.0010387759830711
  66    0.0026469669915342
  67    -0.0015686833763882
  68    -6.1344363279026e-05
  69    1.8419681498404e-05
  70    -4.7674334932597e-05
  71    1.6657839904146e-05
  72    4.7304934626181e-05
  73    0.00010066847408767
  74    7.8859390214165e-05
  75    -6.9483446157138e-05
  76    -0.00024204936103495
  77    -0.00014182403689035
  78    -2.0583715386628e-06
  79    0.00014159627585651
  80    -0.00011855029320072
  81    9.3291959893952e-05
  82    0.00017021525539991
  83    -0.00068131896231029
  84    -5.6111847419411e-06
  85    -2.0039794601728e-06
  86    4.9089598842455e-05
  87    -4.9723314919582e-05
  88    0.00038941444490841
  89    -0.00011924222318988
  90    2.1404559202918e-05
  91    -1.2553837197569e-05
  92    -2.8211598473444e-06
  93    2.0115322526648e-05
  94    1.2563021129555e-05
 Sym= A
 Ene=               6
 Spin= Alpha
 Occup=    1.00000
   1    -0.0023603317307737
   2    -0.0030831920087138
   3     0.014295747102655
   4    0.0090936133647853
   5    -0.0079295297285798
   6     0.013072387040506
   7     0.032146894975653
   8    -0.026702500509643
   9     0.016849290862661
  10     0.026191075398664
  11    0.0077865802706382
  12     0.019049289539591
  13    -0.0063501202236224
  14     0.024269438533357
  15    -0.0015834679548045
  16    -0.024139625061974
  17    -0.070975539076123
  18     0.032640378889932
  19     0.002829532328075
  20    -0.0052801885575481
  21     0.019756506136974
  22     0.027531163983936
  23    -0.0056143333531362
  24    -6.6835939111693e-05
  25    0.00044333548481349
  26    0.0017288942333009
  27    -0.0013061750743542
  28    0.00078592485238304
  29     -0.00493924878362
  30     0.025192514281551
  31    -0.0013461133638166
  32    -0.0002168323322268
  33    -7.9439165617036e-05
  34    -0.0012896043753265
  35    0.00059285842125315
  36     0.019009747567866
  37    -0.0057548742534805
  38    0.0045844717140023
  39    0.0053898506459493
  40    -0.0051066102676475
  41    0.0067021032728992
  42    0.0081249307764002
  43    0.00010377042962546
  44    0.00039781644325033
  45    0.00012586560365507
  46    -0.00042138698101348
  47    0.00043425755658951
  48    0.00060476579885176
  49    0.00081219217011281
  50    -0.0055222240667286
  51    -0.0014857796041985
  52    -0.0020706844211752
  53    -0.0015225497161018
  54    -0.0031244942714927
  55    -0.002803285811429
  56    -0.0022381270922046
  57    6.5221797417652e-06
  58    6.423070371366e-05
  59    0.00018982600647396
  60    -0.00013493238474658
  61    -0.00043861387796872
  62    0.0011111014128205
  63    -0.0017948113014636
  64     -0.01795263054311
  65    -0.0038962608567885
  66    -0.0073858301051985
  67    -0.001118557243845
  68    -0.0066029825285562
  69    -0.0073505799830266
  70    0.00054161041652918
  71    0.00051198452817472
  72    8.6572887981215e-05
  73    0.00043855787423803
  74    -0.00033585204733311
  75    0.00040754969066506
  76     0.041634177134468
  77     0.045869565573142
  78    -0.0023067816653489
  79    0.0031958411717371
  80    -0.00022297448692008
  81    -0.0014689554955005
  82    -0.0029099551379655
  83    0.0095183794127593
  84      0.48455529299757
  85    -0.083046660567658
  86      0.45222846682876
  87      0.33643647419528
  88    -0.059162100170514
  89      0.31117683451818
  90    -0.0083167682563704
  91    -0.0013870016126428
  92    -0.0069725556558676
  93    0.0021850435918267
  94    -0.0091368800838088
 Sym= A
 Ene=               7
 Spin= Alpha
 Occup=    1.00000
   1    -0.002360287270818
   2    -0.0030828456633293
   3      0.01429593687531
   4    0.0090931610895341
   5    0.0079300412166802
   6     0.013072913751367
   7     0.032146436135487
   8      0.02670311185592
   9       0.0168498181475
  10     0.026191430754739
  11    0.0077862622224843
  12    -0.019049505829532
  13    -0.0063495730314174
  14    -0.024269134743461
  15    -0.001583407181825
  16    -0.024139255000427
  17    -0.070975167050092
  18     0.032639907836286
  19    -0.0028295161802381
  20    -0.0052802345355022
  21       0.0197561578019
  22    -0.027531014016863
  23    -0.0056146144342978
  24    -6.683109182089e-05
  25    0.00044332335074287
  26    -0.0017288578956933
  27    -0.0013061596983702
  28    -0.00078592001438577
  29    -0.0049392053092411
  30     0.025192571652525
  31    -0.0013461218457656
  32    0.00021682065854165
  33    -7.9449548071907e-05
  34    0.00060478143769912
  35    0.00081228795711377
  36    -0.0055221693870986
  37    -0.0014859379453506
  38    0.0020706437053072
  39    -0.0015224300470933
  40    -0.0031245249159143
  41    0.0028032905702186
  42    -0.0022380371587675
  43    6.5252186132555e-06
  44    6.4235856244634e-05
  45    -0.00018982008620554
  46    -0.00013494095786786
  47    0.00043860008064232
  48    -0.0012895936789523
  49    0.00059282712012364
  50     0.019009540312441
  51    -0.0057547378719971
  52    -0.0045843896978513
  53    0.0053898121795109
  54    -0.0051064571537468
  55    -0.0067020178557737
  56    0.0081248880883929
  57    0.00010376753023064
  58    0.0003978132467906
  59    -0.00012586297032585
  60    -0.00042137982121623
  61    -0.00043425020752959
  62    -0.0014690218165101
  63    -0.0029101743966064
  64    0.0095179961045327
  65      0.48454749935218
  66     0.083054420090611
  67      0.45223537876856
  68      0.33643105842757
  69     0.059167403261031
  70      0.31118162318564
  71    -0.0083169044295318
  72    -0.0013868552926352
  73     0.006972592008188
  74    0.0021848401872107
  75    0.0091368035409088
  76     0.041634382783121
  77     0.045869696104061
  78    -0.0023067964287708
  79    -0.0031958542233862
  80    -0.00022298488205824
  81     0.001111126116169
  82    -0.0017951044623246
  83    -0.017953558741839
  84    -0.0038963666618455
  85     0.007386601035572
  86    -0.0011184033263942
  87    -0.0066030698317425
  88    0.0073513212281737
  89    0.00054174124770629
  90    0.00051198722450733
  91    8.6561054092753e-05
  92    -0.00043856351815532
  93    -0.00033585654123345
  94    -0.00040754045613281
 Sym= A
 Ene=               8
 Spin= Alpha
 Occup=    1.00000
   1    0.0015834105455166
   2     0.024139270574965
   3     0.070975168287098
   4     0.032639917779737
   5    -0.0028295046320226
   6    -0.0052802397781194
   7      0.01975615433992
   8    -0.027531019039487
   9    -0.0056146244007315
  10    6.6829781542873e-05
  11    -0.00044332760979914
  12    0.0017288590179047
  13      0.00130616173064
  14    0.00078592577696681
  15     0.002360302695451
  16    0.0030829760101644
  17    -0.014295901836458
  18    0.0090932315444318
  19    0.0079301713896159
  20     0.013072817461341
  21     0.032146448663357
  22     0.026703102730538
  23     0.016849813486793
  24    -0.026191420821363
  25    -0.007786275891758
  26     0.019049485719644
  27     0.006349585502667
  28     0.024269149723216
  29    -0.041634371511837
  30    -0.045869716147038
  31    -0.0023067933999524
  32    -0.0031958488053258
  33    -0.00022298834647707