[Molden Format]
made by pyscf v[2.0.1]
[Atoms] (AU)
C   1   6     0.00000000000000     0.00000000000000     0.00000000000000
C   2   6     2.85272299873892     0.00000000000000     0.00000000000000
H   3   1     3.62066923017674     0.00000000000000     1.90331545357504
F   4   9     3.65943188126013    -2.04308229183900    -1.24074875274501
F   5   9     3.65943188126013     2.04308229183900    -1.24074875274501
F   6   9    -0.80670888252121    -1.49550828705448     1.86469774548472
H   7   1    -0.76794623143782    -0.65097222422569    -1.78853148675225
F   8   9    -0.80670888252121     2.34423041954446     0.46714714892290
[GTO]
1 0
 s    8 1.00
                  6665  0.00069158396281299
                  1000  0.0053257961529341
                   228   0.027060721042034
                 64.71    0.10165684614077
                 21.06     0.2745748236174
                 7.495    0.44829431892377
                 2.797    0.28490261071525
                0.5215   0.015194859206082
 s    8 1.00
                  6665  -0.00029326965268655
                  1000  -0.0023180354739745
                   228  -0.011499786038565
                 64.71  -0.046826727009787
                 21.06   -0.12846616875047
                 7.495   -0.30126627246289
                 2.797   -0.25563070233011
                0.5215      1.093793361012
 s    1 1.00
                0.1596                   1
 p    3 1.00
                 9.439   0.056979251590039
                 2.002    0.31320721150073
                0.5456    0.76037674173753
 p    1 1.00
                0.1517                   1
 d    1 1.00
                  0.55                   1

2 0
 s    8 1.00
                  6665  0.00069158396281299
                  1000  0.0053257961529341
                   228   0.027060721042034
                 64.71    0.10165684614077
                 21.06     0.2745748236174
                 7.495    0.44829431892377
                 2.797    0.28490261071525
                0.5215   0.015194859206082
 s    8 1.00
                  6665  -0.00029326965268655
                  1000  -0.0023180354739745
                   228  -0.011499786038565
                 64.71  -0.046826727009787
                 21.06   -0.12846616875047
                 7.495   -0.30126627246289
                 2.797   -0.25563070233011
                0.5215      1.093793361012
 s    1 1.00
                0.1596                   1
 p    3 1.00
                 9.439   0.056979251590039
                 2.002    0.31320721150073
                0.5456    0.76037674173753
 p    1 1.00
                0.1517                   1
 d    1 1.00
                  0.55                   1

3 0
 s    3 1.00
                 13.01   0.033498726389998
                 1.962    0.23480080117413
                0.4446     0.8136829578829
 s    1 1.00
                 0.122                   1
 p    1 1.00
                 0.727                   1

4 0
 s    8 1.00
                 14710  0.00072067370873197
                  2207  0.0055504869689163
                 502.8   0.028254207662589
                 142.6    0.10639582836653
                 46.47    0.28668420124307
                  16.7    0.44843796582416
                 6.356    0.26464118141135
                 1.316   0.015326060993048
 s    8 1.00
                 14710  -0.00032119389049893
                  2207  -0.0025461915683188
                 502.8  -0.012643359507821
                 142.6   -0.05195749170489
                 46.47   -0.14344713812646
                  16.7   -0.33243762329603
                 6.356   -0.21865906750347
                 1.316     1.0955904138622
 s    1 1.00
                0.3897                   1
 p    3 1.00
                 22.67   0.064834021493887
                 4.977    0.34053535983101
                 1.347    0.73464640679382
 p    1 1.00
                0.3471                   1
 d    1 1.00
                  1.64                   1

5 0
 s    8 1.00
                 14710  0.00072067370873197
                  2207  0.0055504869689163
                 502.8   0.028254207662589
                 142.6    0.10639582836653
                 46.47    0.28668420124307
                  16.7    0.44843796582416
                 6.356    0.26464118141135
                 1.316   0.015326060993048
 s    8 1.00
                 14710  -0.00032119389049893
                  2207  -0.0025461915683188
                 502.8  -0.012643359507821
                 142.6   -0.05195749170489
                 46.47   -0.14344713812646
                  16.7   -0.33243762329603
                 6.356   -0.21865906750347
                 1.316     1.0955904138622
 s    1 1.00
                0.3897                   1
 p    3 1.00
                 22.67   0.064834021493887
                 4.977    0.34053535983101
                 1.347    0.73464640679382
 p    1 1.00
                0.3471                   1
 d    1 1.00
                  1.64                   1

6 0
 s    8 1.00
                 14710  0.00072067370873197
                  2207  0.0055504869689163
                 502.8   0.028254207662589
                 142.6    0.10639582836653
                 46.47    0.28668420124307
                  16.7    0.44843796582416
                 6.356    0.26464118141135
                 1.316   0.015326060993048
 s    8 1.00
                 14710  -0.00032119389049893
                  2207  -0.0025461915683188
                 502.8  -0.012643359507821
                 142.6   -0.05195749170489
                 46.47   -0.14344713812646
                  16.7   -0.33243762329603
                 6.356   -0.21865906750347
                 1.316     1.0955904138622
 s    1 1.00
                0.3897                   1
 p    3 1.00
                 22.67   0.064834021493887
                 4.977    0.34053535983101
                 1.347    0.73464640679382
 p    1 1.00
                0.3471                   1
 d    1 1.00
                  1.64                   1

7 0
 s    3 1.00
                 13.01   0.033498726389998
                 1.962    0.23480080117413
                0.4446     0.8136829578829
 s    1 1.00
                 0.122                   1
 p    1 1.00
                 0.727                   1

8 0
 s    8 1.00
                 14710  0.00072067370873197
                  2207  0.0055504869689163
                 502.8   0.028254207662589
                 142.6    0.10639582836653
                 46.47    0.28668420124307
                  16.7    0.44843796582416
                 6.356    0.26464118141135
                 1.316   0.015326060993048
 s    8 1.00
                 14710  -0.00032119389049893
                  2207  -0.0025461915683188
                 502.8  -0.012643359507821
                 142.6   -0.05195749170489
                 46.47   -0.14344713812646
                  16.7   -0.33243762329603
                 6.356   -0.21865906750347
                 1.316     1.0955904138622
 s    1 1.00
                0.3897                   1
 p    3 1.00
                 22.67   0.064834021493887
                 4.977    0.34053535983101
                 1.347    0.73464640679382
 p    1 1.00
                0.3471                   1
 d    1 1.00
                  1.64                   1

[5d]
[7f]
[9g]

[MO]
 Sym= A
 Ene=               0
 Spin= Alpha
 Occup=    1.00000
   1       1.0018590228189
   2    -0.00094900440261204
   3    -0.0094905793941145
   4    -0.00015941582577885
   5     0.001008904593074
   6    0.0028854236979421
   7    -0.001624155445961
   8    0.00049570979561914
   9    0.0015227095712476
  10    -4.63906355539e-05
  11    -0.00011324484025875
  12    -0.00016510270762569
  13    -0.00027688446704741
  14    -3.2905859471916e-05
  15    -0.00019759327037533
  16    -0.00086170206995967
  17    0.0027423101416015
  18    0.0010613908726532
  19    1.5923482518654e-05
  20    0.00012079878455286
  21    -0.0011429087101953
  22    -8.54259781967e-05
  23    -0.00035374079967033
  24    7.5041640271793e-05
  25    -1.9069562446216e-05
  26    3.231660187613e-06
  27    -0.00020178333609825
  28    1.1585403890827e-05
  29    -5.1293182076568e-06
  30    0.00039654690342273
  31    -6.4814499408816e-05
  32    1.2604577693158e-06
  33    -3.1013709808725e-05
  34    4.9385898439632e-06
  35    0.00011417122017898
  36    -8.9075163598347e-06
  37    -0.0002632229579776
  38    0.00011397456578392
  39    -9.0097122485418e-06
  40    -0.00034298343286835
  41    -1.2240171416031e-05
  42    2.522791012296e-05
  43    -1.0862358068802e-05
  44    -5.9301567319888e-06
  45    1.2682765020208e-05
  46    1.1451955802162e-05
  47    3.850814236205e-06
  48    -2.0672689350319e-05
  49    3.5529722102916e-05
  50    5.1965841616059e-05
  51    -0.00017461745081952
  52    -0.00010382203444861
  53    -1.171983542058e-05
  54    -0.00034263760214173
  55    2.0915095357731e-05
  56    1.3464878397682e-06
  57    -1.4519858038315e-05
  58    -4.9479753624859e-06
  59    -8.9354461451901e-06
  60    2.0250420387242e-05
  61    -6.6037558437041e-07
  62    0.00014574889280503
  63    -9.1092447375053e-05
  64    -0.00074929395450066
  65    -0.00044539741896148
  66    -0.00080241686538286
  67    0.0008869589932367
  68    -0.00042845751568048
  69    -0.0012869217269612
  70     0.001196619591435
  71    -0.0001071438554221
  72    0.00010279513811653
  73    0.00023920789617356
  74    6.3756354256025e-05
  75    -9.1954027357687e-05
  76    -0.0030707232260623
  77    0.00087260109445775
  78    5.4913077392051e-05
  79    -0.00010669827282036
  80    -0.00030951072479198
  81    0.00012917287709188
  82    -0.00012231213812767
  83    -0.00064592565104079
  84    -0.00045056729779041
  85    0.0011822826089518
  86    0.00016568333508518
  87    -0.00041483918684982
  88    0.0017247633034195
  89    7.8020285715173e-05
  90    0.0001373532535563
  91    1.9106029836687e-05
  92    -9.8237793742159e-05
  93    0.00020247128731004
  94    0.00013276890653987
 Sym= A
 Ene=               1
 Spin= Alpha
 Occup=    1.00000
   1    -0.00019757242710663
   2    -0.00086170913733191
   3    0.0027423451873915
   4    -0.0010613367919806
   5    -2.6334916474484e-05
   6    -0.00011900311023981
   7     0.001142926104568
   8    4.0704495965295e-05
   9    0.00036162110051341
  10    8.4108506317192e-05
  11    -1.3952448735186e-05
  12    -2.5549281563759e-05
  13    -0.00019654060858518
  14    -1.7412199778113e-05
  15       1.0018590230533
  16    -0.00094901687510524
  17    -0.0094905798398097
  18    0.0001593639489166
  19    -3.882902222556e-05
  20    -0.0030564699599146
  21    0.0016241507268887
  22    -5.499581900598e-05
  23    -0.0016004204486736
  24    -0.00010211991170562
  25    -0.00011766669558002
  26    1.1661596922489e-05
  27    -0.00030905068485594
  28    -7.7994848423373e-06
  29    -0.0030707587788026
  30    0.00087257866139173
  31    -5.4914007850861e-05
  32    5.595178183897e-06
  33    0.00032734039045059
  34    0.00014574954138608
  35    -9.1096226625849e-05
  36    -0.00074930050299401
  37    0.00044530965088513
  38    -0.0010575378420155
  39    -0.00055889825449893
  40    0.00042839807688238
  41    -0.0016186860939594
  42    -0.00068421162964707
  43    3.8360001206708e-05
  44    6.5143230741738e-05
  45    -0.00022239667220365
  46      0.00014776567401
  47    0.0001215660856176
  48    0.00012917362060312
  49    -0.00012231718174709
  50    -0.00064592322297669
  51    0.00045076777764161
  52    0.0010542811616174
  53    -0.00056001903422984
  54    0.00041497982771501
  55    0.0015940355337506
  56    -0.00066319101880231
  57    3.805554648631e-05
  58    6.336544501328e-05
  59    0.00021678768774488
  60    0.00014514010540723
  61    -0.00011823042743441
  62    4.9395943086592e-06
  63    0.00011414576791695
  64    -8.93543427034e-06
  65    0.00026318708217719
  66    0.00011011843738074
  67    -3.0473337691612e-05
  68    0.00034295726666556
  69    -2.0172384809404e-05
  70    -1.9492619318712e-05
  71    -3.0571499484199e-06
  72    -4.2545473128871e-06
  73    -1.2078912511006e-05
  74    1.596001625798e-05
  75    -5.6480847484238e-06
  76    -5.1319747070573e-06
  77    0.00039653529998058
  78    6.4816077307841e-05
  79    1.1792400564857e-05
  80    2.8710635908925e-05
  81    -2.0672304653731e-05
  82    3.5533481654648e-05
  83    5.1969742816911e-05
  84    0.00017458115969453
  85    -9.354759584902e-05
  86    4.6477491027591e-05
  87    0.00034260918511647
  88    1.9195358110068e-05
  89    -8.4491330355617e-06
  90    -1.8996912325094e-05
  91    -4.8756881142183e-06
  92    5.271805646624e-06
  93    1.7665430969282e-05
  94    -1.0713775363203e-06
 Sym= A
 Ene=               2
 Spin= Alpha
 Occup=    1.00000
   1    6.6666977210425e-05
   2    9.0441149264504e-05
   3    -0.0016188749739632
   4    -0.00012472116725701
   5    2.1734940471593e-05
   6    -1.034571841761e-05
   7    -0.00087767383811707
   8    -0.00028414410600966
   9    0.00016778077036995
  10    8.379058698043e-06
  11    1.3020334730697e-05
  12    -4.228422342139e-05
  13    -9.9195998932967e-05
  14    -1.1169483641655e-05
  15    -4.2228478095669e-05
  16    6.0271624128373e-05
  17    0.0039321540645499
  18    0.00026042350355682
  19    0.00047308056900044
  20    -0.0002824279502715
  21    -0.00035018940803734
  22    0.0011546685160693
  23    -0.0010265569000212
  24    -5.2247735101924e-06
  25    -1.1475475683065e-06
  26    6.0515363284914e-05
  27    4.7983429519073e-05
  28    -2.6736109210177e-05
  29    -0.00023597842741129
  30    -0.00014033642446403
  31    -1.2789860283153e-08
  32    -0.00013953046806523
  33    0.00011927972624364
  34    9.9211000901249e-05
  35    0.00018292886698263
  36    -0.0007200073488129
  37    6.0750593138735e-06
  38    6.8652574911166e-06
  39    -5.0473840802458e-05
  40    5.2670076943637e-05
  41    -0.00040280912222233
  42    0.00011994040552471
  43    2.1673466597258e-05
  44    -1.2534461291152e-05
  45    -3.7709471117662e-06
  46    2.199070986549e-05
  47    1.2681048646512e-05
  48       1.0010162442728
  49    -0.0043065038663636
  50    -0.011534129943299
  51    -0.0010477704385728
  52    -0.0025733854674985
  53    0.0015625783176701
  54    3.6552001767282e-05
  55    5.4580827860621e-05
  56    5.262241335016e-05
  57    1.7050453788331e-05
  58    4.6001681594037e-05
  59    0.00010020474321322
  60    8.2329832493001e-05
  61    -7.1646563598813e-05
  62    -2.4430123830053e-05
  63    -4.0051083907621e-05
  64    0.00012214289699224
  65    -2.9069807115677e-05
  66    4.5996203082032e-06
  67    -6.2744118419624e-06
  68    0.00019013157890732
  69    3.4816076883674e-05
  70    -1.2319285841924e-05
  71    -7.1618248992258e-06
  72    2.6705034165879e-06
  73    -4.1002505987958e-07
  74    -2.9743388477161e-06
  75    9.8990781531099e-07
  76    0.00013416763626555
  77    -0.00016138183648862
  78    -2.53551864973e-05
  79    1.0837250234614e-05
  80    -8.9826302692283e-07
  81    -4.2672136950924e-06
  82    -4.4993242498588e-06
  83    0.00011760087975314
  84    1.3198984971608e-05
  85    2.2923795973421e-05
  86    1.9180289631647e-05
  87    -1.7302947987697e-05
  88    -4.1167097245621e-05
  89    -4.9960741362706e-05
  90    1.3403689379546e-05
  91    8.6897204448651e-06
  92    -4.9138296686721e-06
  93    -1.5625236662888e-05
  94    1.8304446667845e-06
 Sym= A
 Ene=               3
 Spin= Alpha
 Occup=    1.00000
   1    -4.2203452415174e-05
   2    6.0346437421309e-05
   3    0.0039321589265358
   4    -0.00026047051486389
   5    0.00054130311516016
   6    0.00010355898220077
   7    0.00035014245984685
   8    0.0014361686043379
   9    0.00056965490517428
  10    2.4493837039419e-05
  11    -1.0213153830501e-05
  12    -3.3888388138647e-05
  13    6.5181094949253e-05
  14    2.4692197134014e-05
  15    6.6672042142376e-05
  16    9.0487009134089e-05
  17    -0.0016187978211897
  18    0.00012467048104507
  19    2.3975115099264e-05
  20    2.2857211236687e-06
  21    0.00087764373542337
  22    -0.00032443644443622
  23    -6.0450024023442e-05
  24    -6.5790543386004e-06
  25    8.415921928321e-06
  26    5.1715984102019e-06
  27    -0.00010783374920678
  28    1.4936701620411e-05
  29    0.00013417214758288
  30    -0.00016142001834637
  31    2.5354398623175e-05
  32    1.0493651048964e-05
  33    -2.8615425947929e-06
  34    -2.4427650117019e-05
  35    -4.0045369468521e-05
  36    0.00012212676139025
  37    2.9061685306587e-05
  38    6.4602333320183e-06
  39    4.3281600837876e-06
  40    -0.00019013206698104
  41    3.6921615612389e-05
  42    -3.3717216085505e-07
  43    -5.8320996128444e-06
  44    2.8474752173046e-06
  45    -4.6289487352631e-06
  46    -2.2063870263171e-06
  47    -1.7561662612416e-08
  48    -4.2689358317807e-06
  49    -4.4941980194018e-06
  50    0.00011762919188841
  51    -1.3273087656864e-05
  52    1.4986813671065e-05
  53    -2.5878213195465e-05
  54    1.725751731105e-05
  55    -2.1601193837608e-05
  56    6.1017055872976e-05
  57    9.8987613487892e-06
  58    8.7913784056003e-06
  59    6.2030658446024e-06
  60    -1.7648547555296e-05
  61    1.2548133500219e-06
  62    9.9208789917873e-05
  63    0.00018291105672319
  64    -0.00071998476446025
  65    -6.0689085099707e-06
  66    2.3627934180104e-05
  67    4.5089264130614e-05
  68    -5.2656580738792e-05
  69    -0.00041959357078844
  70    2.5060738920517e-05
  71    1.3542463483982e-05
  72    -7.4398650144979e-06
  73    2.2021883737288e-05
  74    1.7297932558036e-05
  75    -1.6204960742361e-05
  76    -0.00023606008368598
  77    -0.00014045492957502
  78    1.2665995575203e-08
  79    -0.00017191176625792
  80    -6.4364183278043e-05
  81       1.0010162268089
  82    -0.0043075847192814
  83    -0.011535401388824
  84    0.0010471985546285
  85    -0.0029532696174375
  86    -0.00058912956397116
  87    -3.695192756521e-05
  88    3.2853630549059e-05
  89    -6.875962588873e-05
  90    6.1499420093859e-05
  91    1.8717317509828e-05
  92    -4.0788436987223e-05
  93    0.00010797697019651
  94    8.3067230002185e-05
 Sym= A
 Ene=               4
 Spin= Alpha
 Occup=    1.00000
   1    -3.0382382933616e-05
   2    7.9796133345295e-05
   3    0.0037589553570516
   4    -0.00026202426310867
   5    -0.00034080105790332
   6    0.00042694600874981
   7    0.00030846417048413
   8    -0.00071307545535891
   9    0.0012903954796093
  10    -2.8048824711619e-05
  11    2.4460915823237e-05
  12    6.245972055932e-05
  13     2.81739249874e-05
  14    -1.1398960388407e-05
  15    6.964554786407e-05
  16    0.00010466739706118
  17    -0.0014956852801838
  18    0.00014499872480249
  19    -2.170674441319e-05
  20    3.9107877479215e-05
  21    0.00077554486569168
  22    7.0351675705781e-05
  23    -0.00026389260299092
  24    7.5719088175947e-05
  25    4.3585193357268e-05
  26    -5.6170539048945e-05
  27    -6.989229216796e-05
  28    4.7789427812924e-06
  29    7.8639306511653e-05
  30    -9.4725929307642e-05
  31    6.368730047404e-05
  32    2.1954418209596e-05
  33    1.5834582405792e-05
  34    2.487091249778e-05
  35    5.4589401713378e-05
  36    -1.0744240235774e-05
  37    -3.1467604556027e-05
  38    2.9780366433632e-06
  39    3.4659360029789e-06
  40    3.7415919820344e-05
  41    2.5170026545122e-05
  42    5.6380875461654e-06
  43    7.1318037497454e-06
  44    9.154657685317e-06
  45    4.7801885673933e-06
  46    -1.4566002966949e-05
  47    -2.1051581687899e-06
  48    -2.463021163911e-05
  49    -4.1838135249784e-05
  50    0.00013655898056756
  51    1.9212941405702e-05
  52    -6.721923780095e-06
  53    -5.5089540969083e-06
  54    -0.00014668605611543
  55    -1.6063819946175e-05
  56    4.3186094854374e-05
  57    9.2847154169235e-06
  58    3.0306020427997e-06
  59    -2.7975981921307e-06
  60    3.738256513933e-06
  61    -3.8453069780187e-06
  62       1.0010103146994
  63    -0.0042952219559146
  64    -0.011451927851485
  65    0.0010779986188486
  66    0.0019149793749681
  67    -0.0022904224613266
  68    -3.4017185210517e-05
  69    -3.5006895582659e-06
  70    2.7161544081025e-06
  71    -5.2167282975559e-05
  72    6.7984125483707e-05
  73    0.00011191835748863
  74    4.1375615423858e-05
  75    -4.6805488072518e-05
  76    -0.00025014991942074
  77    -0.0001382023211941
  78    -4.5324134635939e-06
  79    8.695276524081e-05
  80    -0.00016156777260658
  81    9.5844075542795e-05
  82    0.00017548881043088
  83    -0.0006905026822697
  84    -4.0313337899294e-06
  85    1.3913884592608e-05
  86    4.4301212723802e-05
  87    -5.8052639701139e-05
  88    0.00031965361553097
  89    -0.00023416888025095
  90    1.6949388335139e-05
  91    -1.5722698495858e-05
  92    1.5796971385719e-05
  93    1.6917341120535e-05
  94    7.8469852990715e-06
 Sym= A
 Ene=               5
 Spin= Alpha
 Occup=    1.00000
   1    6.9652471477095e-05
   2    0.00010470941503703
   3    -0.0014956470703477
   4    -0.00014494981197945
   5    -3.3755982134052e-05
   6    -2.932552329942e-05
   7    -0.00077550049069408
   8    0.00015640335591202
   9    0.00022395203723099
  10    3.8245188325686e-05
  11    4.2592217379944e-05
  12    6.2710561208277e-05
  13    -9.1526734827488e-05
  14    1.0420523978848e-05
  15    -3.0392207349538e-05
  16    7.9790764697662e-05
  17    0.0037589504792898
  18    0.00026206210141082
  19    -0.00046614498500159
  20    -0.00028468808991872
  21    -0.00030840910741538
  22    -0.0011113279400614
  23    -0.00096877427862103
  24    8.8374621679878e-06
  25    1.9044791582087e-05
  26    -5.4370200079946e-05
  27    4.9501210178112e-05
  28    1.9034619483147e-05
  29    -0.00025011665444336
  30    -0.0001381506790372
  31    4.5324005352937e-06
  32    0.00013696887392505
  33    0.00012208567878457
  34       1.0010103289375
  35    -0.0042944466392751
  36    -0.011451048591913
  37    -0.0010769522135354
  38    0.0025835984359268
  39    0.0014961814316925
  40    3.4742219182788e-05
  41    -3.7158787674604e-06
  42    -2.1503871170418e-06
  43    1.5077915466494e-05
  44    4.789684674641e-05
  45    -0.00010148657609849
  46    8.0187098302292e-05
  47    6.7245583195125e-05
  48    9.5847320404246e-05
  49    0.00017545446162313
  50    -0.000690621509086
  51    3.9532699204945e-06
  52    -1.9685247364362e-06
  53    -4.6417857505401e-05
  54    5.8001896412534e-05
  55    0.00038056797470409
  56    0.00011069551529869
  57    2.1055792590963e-05
  58    -1.2093605131432e-05
  59    2.7721494331469e-06
  60    1.9288751702693e-05
  61    -1.2750622881488e-05
  62    2.4867384703403e-05
  63    5.4595225383645e-05
  64    -1.0735665987792e-05
  65    3.1485001915554e-05
  66    1.5893716643122e-06
  67    -4.2963058299779e-06
  68    -3.7406478801874e-05
  69    2.1707091583626e-05
  70    -1.3924394707683e-05
  71    1.001746794368e-05
  72    7.8823524301872e-06
  73    -4.3733935723977e-06
  74    -1.2899915837711e-05
  75    5.1106118293543e-06
  76    7.8652420831824e-05
  77    -9.4697638695322e-05
  78    -6.3686364305792e-05
  79    1.5216154041327e-05
  80    -2.2385446839528e-05
  81    -2.4628563622366e-05
  82    -4.1840436920211e-05
  83    0.00013652657298039
  84    -1.9196447702873e-05
  85    -4.4062207227226e-06
  86    7.4351022980396e-06
  87    0.00014668773951849
  88    -2.9842046103307e-05
  89    -3.5116347390882e-05
  90    5.7194075069341e-06
  91    1.5320771568128e-06
  92    8.5139281498933e-06
  93    1.6813398372471e-06
  94    4.6483584560154e-06
 Sym= A
 Ene=               6
 Spin= Alpha
 Occup=    1.00000
   1    -0.0024394108055495
   2    -0.0024937515119406
   3     0.021265633428278
   4    0.0085324397674963
   5    -0.0043940832681187
   6      0.01705545544956
   7     0.035369895528952
   8    -0.020625128926947
   9     0.027270927831297
  10     0.012040892485168
  11    -0.0016805659749919
  12     0.028739674667287
  13    -0.013414867663636
  14     0.024612657028902
  15    -0.0016145000510264
  16    -0.022292117135267
  17    -0.066759271748738
  18     0.032423027771686
  19    0.0020539162154802
  20    -0.0027048972701527
  21     0.027579932884059
  22     0.027068752746982
  23    -0.0072575559233561
  24    -0.00030328308672321
  25    -0.00019305669391425
  26    0.0012857610368671
  27    -0.0017982469368457
  28    0.0010747136958343
  29    -0.0020744865198033
  30     0.018265808209658
  31    0.0006048159784166
  32    -0.0009119529048732
  33    -0.00047927435975562
  34    -0.0013105258384458
  35    -0.00021173511078359
  36      0.01621090376206
  37    -0.0046745390478543
  38    0.0041997965837076
  39    0.0045353804100754
  40    -0.005909675898781
  41     0.005401123143264
  42    0.0076018952589031
  43    0.0001000535515277
  44    0.00036128161633593
  45    0.00014699309988148
  46    -0.00029260708270296
  47    0.00041536699361152
  48    0.00054677240795424
  49    -0.00065513613472306
  50    -0.0088301186098487
  51    0.00076830802653943
  52    -0.0025784212224861
  53    -0.0042204086090011
  54    -0.0027291798022215
  55    -0.00086776139794934
  56    -0.0036025788736731
  57    -3.4312794238746e-05
  58    -0.00017768850648848
  59    0.00034444773936777
  60    0.00015172363364256
  61    -0.00065421538807018
  62    0.0012823473286118
  63    -0.0025742938754514
  64    -0.021596632478735
  65    -0.0041433122633302
  66    -0.0093581869394544
  67    0.0026192401403167
  68    -0.0076843276181013
  69    -0.0087110871488231
  70    0.0042519905920054
  71    0.00021151078262361
  72    -6.8494627224399e-05
  73    0.00053987008258922
  74    -0.00051701837516419
  75    0.00039037991794389
  76      0.04259571577643
  77     0.048400530174146
  78    -0.002301974045637
  79    0.0029628905107368
  80    -0.0012365248978507
  81    -0.0013411350213464
  82    -0.0035726423505071
  83    0.0078508692893829
  84      0.46182767689039
  85     0.064763167653893
  86      0.47787921309076
  87      0.32011156231839
  88     0.042562433337551
  89      0.32982192808383
  90    -0.0032719103318709
  91    0.0021206225958165
  92     -0.00980659045936
  93    0.0046518219603494
  94    -0.0087962823089537
 Sym= A
 Ene=               7
 Spin= Alpha
 Occup=    1.00000
   1    0.0010777879493063
   2     0.025156879135787
   3      0.07866166654654
   4     0.032533174069036
   5    -0.0002540236717961
   6    -0.0079091355540123
   7       0.0154297008824
   8      0.01894556111452
   9     -0.01043803450173
  10    0.00043897098484159
  11    -0.00083136853941538
  12    -0.0012636755437093
  13    0.0009960600585981
  14    -0.0008120012190248
  15    0.0025169651797178
  16    0.0038485499016322
  17    -0.012021603599238
  18     0.010001971972243
  19    -0.0066150407295109
  20     0.011605597386344
  21     0.031481608026114
  22    -0.023713422714398
  23     0.016281403056885
  24    -0.025171284110363
  25    -0.0084779717350661
  26    -0.018498099913808
  27    0.0078000642776895
  28    -0.024850014283322
  29    -0.040926611866894
  30    -0.044307767049742
  31    -0.0022447788471701
  32    0.0030965657619818
  33    -0.00026442243019024
  34     0.001435377856332
  35    -0.0029004535847803
  36    -0.015630850963483
  37      0.50250546523006
  38    -0.064695651271526
  39      0.43579977002043
  40      0.34901425393754
  41    -0.046326117529514
  42      0.29981904323726
  43    0.0080308018345137
  44    0.0017331755040604
  45    0.0067674789987695
  46    -0.0026565206364071
  47    0.0091991238612598
  48    -0.000993206507432
  49    0.0012583722804452
  50     0.015461698601986
  51    -0.0040882965113106
  52    -0.0055793028799789
  53    -0.0013352495041708
  54    -0.0064101062950754
  55    -0.005727543565041
  56    0.00031813515880521
  57    -0.00049612296693832
  58    -0.00010000042396821
  59    -0.00043642386318745
  60    0.00029409577533424
  61    -0.00040888416462473
  62    -0.00021683198039634
  63    -0.0012355810193711
  64    -0.00084009964545794
  65    -0.0026225647749603
  66    -0.0020026333872842
  67     0.002276303828761
  68    -0.0034617070290639
  69    -0.0050333053245744
  70    0.0019155070774669
  71    4.7320667637142e-05
  72    -0.000322063481595
  73    9.0914665743656e-05
  74    0.00027730295220495
  75    0.00024346108294542
  76    0.0069657282913238
  77    -0.029462072896418
  78    -0.003166439262784
  79    0.00045620621742578
  80    0.0007966503617355
  81    0.0010306949127513
  82    -0.0015140115830601
  83    -0.019113028183531
  84    -0.0064544674047949
  85    0.0063706027909109
  86      0.00348835937436
  87    -0.0043796308732379
  88    0.0098992820458957
  89     0.004229504462451
  90    -6.4692584474809e-05
  91    -0.00021710184085504
  92    3.8519454560132e-05
  93    0.00055134053416227
  94    -0.00054473605680887
 Sym= A
 Ene=               8
 Spin= Alpha
 Occup=    1.00000
   1    -0.002517437093418
   2    -0.0038530937904972
   3     0.012015137935719
   4     0.010010186033831
   5      0.01016752243301
   6    0.0086396950624677
   7     0.031489592709852
   8     0.027833665952471
   9    0.0071826364976076
  10     0.031833551049156
  11     0.016474464174084
  12    -0.002669987803461
  13    -0.0039609834788699
  14    -0.020455093740862
  15    -0.0010792848242518
  16    -0.025165433623617
  17    -0.078667540401966
  18     0.032542908739754
  19    -0.0024673818311448
  20    -0.007518539717021
  21     0.015434377885428
  22    -0.021376910362838
  23    -0.0033226919162527
  24    0.00044235170138548
  25    0.0010590880964774
  26    -0.0015332348526439
  27    -0.00048763641104365
  28    -0.000478454830256
  29    -0.0069684156012491
  30     0.029460654683722
  31     -0.00316636132735
  32    -0.00015630812506806
  33    0.00090507532558459
  34    0.00021687338780579