[Molden Format]
made by pyscf v[2.0.1]
[Atoms] (AU)
C   1   6     0.00000000000000     0.00000000000000     0.00000000000000
C   2   6     2.85272299873892     0.00000000000000     0.00000000000000
H   3   1     3.62066923017674     0.00000000000000     1.90331545357504
F   4   9     3.65943188126013    -2.04308229183900    -1.24074875274501
F   5   9     3.65943188126013     2.04308229183900    -1.24074875274501
F   6   9    -0.80670888252121    -2.38973554312721     0.05297879367154
H   7   1    -0.76794623143782     0.95165772678752    -1.64831953421149
F   8   9    -0.80670888252121     1.14898679038220     2.09606108551054
[GTO]
1 0
 s    8 1.00
                  6665  0.00069158396281299
                  1000  0.0053257961529341
                   228   0.027060721042034
                 64.71    0.10165684614077
                 21.06     0.2745748236174
                 7.495    0.44829431892377
                 2.797    0.28490261071525
                0.5215   0.015194859206082
 s    8 1.00
                  6665  -0.00029326965268655
                  1000  -0.0023180354739745
                   228  -0.011499786038565
                 64.71  -0.046826727009787
                 21.06   -0.12846616875047
                 7.495   -0.30126627246289
                 2.797   -0.25563070233011
                0.5215      1.093793361012
 s    1 1.00
                0.1596                   1
 p    3 1.00
                 9.439   0.056979251590039
                 2.002    0.31320721150073
                0.5456    0.76037674173753
 p    1 1.00
                0.1517                   1
 d    1 1.00
                  0.55                   1

2 0
 s    8 1.00
                  6665  0.00069158396281299
                  1000  0.0053257961529341
                   228   0.027060721042034
                 64.71    0.10165684614077
                 21.06     0.2745748236174
                 7.495    0.44829431892377
                 2.797    0.28490261071525
                0.5215   0.015194859206082
 s    8 1.00
                  6665  -0.00029326965268655
                  1000  -0.0023180354739745
                   228  -0.011499786038565
                 64.71  -0.046826727009787
                 21.06   -0.12846616875047
                 7.495   -0.30126627246289
                 2.797   -0.25563070233011
                0.5215      1.093793361012
 s    1 1.00
                0.1596                   1
 p    3 1.00
                 9.439   0.056979251590039
                 2.002    0.31320721150073
                0.5456    0.76037674173753
 p    1 1.00
                0.1517                   1
 d    1 1.00
                  0.55                   1

3 0
 s    3 1.00
                 13.01   0.033498726389998
                 1.962    0.23480080117413
                0.4446     0.8136829578829
 s    1 1.00
                 0.122                   1
 p    1 1.00
                 0.727                   1

4 0
 s    8 1.00
                 14710  0.00072067370873197
                  2207  0.0055504869689163
                 502.8   0.028254207662589
                 142.6    0.10639582836653
                 46.47    0.28668420124307
                  16.7    0.44843796582416
                 6.356    0.26464118141135
                 1.316   0.015326060993048
 s    8 1.00
                 14710  -0.00032119389049893
                  2207  -0.0025461915683188
                 502.8  -0.012643359507821
                 142.6   -0.05195749170489
                 46.47   -0.14344713812646
                  16.7   -0.33243762329603
                 6.356   -0.21865906750347
                 1.316     1.0955904138622
 s    1 1.00
                0.3897                   1
 p    3 1.00
                 22.67   0.064834021493887
                 4.977    0.34053535983101
                 1.347    0.73464640679382
 p    1 1.00
                0.3471                   1
 d    1 1.00
                  1.64                   1

5 0
 s    8 1.00
                 14710  0.00072067370873197
                  2207  0.0055504869689163
                 502.8   0.028254207662589
                 142.6    0.10639582836653
                 46.47    0.28668420124307
                  16.7    0.44843796582416
                 6.356    0.26464118141135
                 1.316   0.015326060993048
 s    8 1.00
                 14710  -0.00032119389049893
                  2207  -0.0025461915683188
                 502.8  -0.012643359507821
                 142.6   -0.05195749170489
                 46.47   -0.14344713812646
                  16.7   -0.33243762329603
                 6.356   -0.21865906750347
                 1.316     1.0955904138622
 s    1 1.00
                0.3897                   1
 p    3 1.00
                 22.67   0.064834021493887
                 4.977    0.34053535983101
                 1.347    0.73464640679382
 p    1 1.00
                0.3471                   1
 d    1 1.00
                  1.64                   1

6 0
 s    8 1.00
                 14710  0.00072067370873197
                  2207  0.0055504869689163
                 502.8   0.028254207662589
                 142.6    0.10639582836653
                 46.47    0.28668420124307
                  16.7    0.44843796582416
                 6.356    0.26464118141135
                 1.316   0.015326060993048
 s    8 1.00
                 14710  -0.00032119389049893
                  2207  -0.0025461915683188
                 502.8  -0.012643359507821
                 142.6   -0.05195749170489
                 46.47   -0.14344713812646
                  16.7   -0.33243762329603
                 6.356   -0.21865906750347
                 1.316     1.0955904138622
 s    1 1.00
                0.3897                   1
 p    3 1.00
                 22.67   0.064834021493887
                 4.977    0.34053535983101
                 1.347    0.73464640679382
 p    1 1.00
                0.3471                   1
 d    1 1.00
                  1.64                   1

7 0
 s    3 1.00
                 13.01   0.033498726389998
                 1.962    0.23480080117413
                0.4446     0.8136829578829
 s    1 1.00
                 0.122                   1
 p    1 1.00
                 0.727                   1

8 0
 s    8 1.00
                 14710  0.00072067370873197
                  2207  0.0055504869689163
                 502.8   0.028254207662589
                 142.6    0.10639582836653
                 46.47    0.28668420124307
                  16.7    0.44843796582416
                 6.356    0.26464118141135
                 1.316   0.015326060993048
 s    8 1.00
                 14710  -0.00032119389049893
                  2207  -0.0025461915683188
                 502.8  -0.012643359507821
                 142.6   -0.05195749170489
                 46.47   -0.14344713812646
                  16.7   -0.33243762329603
                 6.356   -0.21865906750347
                 1.316     1.0955904138622
 s    1 1.00
                0.3897                   1
 p    3 1.00
                 22.67   0.064834021493887
                 4.977    0.34053535983101
                 1.347    0.73464640679382
 p    1 1.00
                0.3471                   1
 d    1 1.00
                  1.64                   1

[5d]
[7f]
[9g]

[MO]
 Sym= A
 Ene=               0
 Spin= Alpha
 Occup=    1.00000
   1       1.0018617908166
   2    -0.00094802404001636
   3    -0.0095369731164923
   4    -0.00015506779456592
   5    -0.0014851855453017
   6    0.0026773272481438
   7    -0.0016305379231688
   8    -0.00073487001229224
   9    0.0014149242711663
  10    1.4878913710509e-05
  11    -0.0001030102479778
  12    0.00021603020437042
  13    -0.00024061523005686
  14    4.9218815275509e-05
  15    -0.00020158362922568
  16    -0.00086856602597276
  17    0.0027662015712834
  18    0.0010667605758417
  19    -2.446935922879e-05
  20    0.00011608493371126
  21    -0.0011724666222751
  22    0.00011900376170687
  23    -0.00035686326093379
  24    7.9295998390444e-05
  25    -1.6237132821785e-05
  26    -3.7302109255338e-06
  27    -0.00020336544964673
  28    -1.6816441140698e-05
  29    2.5872007505068e-06
  30    0.00041862955127126
  31    -6.6229948747201e-05
  32    -1.9934901374855e-06
  33    -3.1782655416086e-05
  34    -2.304963509811e-05
  35    2.324032875381e-05
  36    4.6478782705539e-05
  37    -0.00015840053764631
  38    9.4253209095132e-05
  39    -1.0246839562731e-05
  40    -0.00032480256468908
  41    -2.1769666127499e-05
  42    -5.1035392074464e-06
  43    -1.4828132755983e-05
  44    -4.1884427752615e-06
  45    7.8444542506669e-06
  46    2.1697338291852e-05
  47    -3.0526855020716e-08
  48    1.1386330738756e-05
  49    0.00013238864511567
  50    -2.771011995606e-05
  51    -0.00028464794990178
  52    -0.00010819993925808
  53    -2.226505658343e-06
  54    -0.00033402866291791
  55    7.0207113716725e-06
  56    2.8410128190073e-05
  57    -9.6728817543543e-06
  58    -5.2068794437872e-06
  59    -1.3374121423485e-05
  60    8.9887598241212e-06
  61    -3.9956468546095e-06
  62    0.00012658521134022
  63    -0.00012720211212949
  64    -0.00062453508071004
  65    -0.00045061723459408
  66    -0.0011931231867244
  67    -4.3941777696943e-05
  68    -0.00041966206372747
  69    -0.0017028125923288
  70    -0.00022057826638202
  71    0.00015437429313654
  72    -3.9861488028863e-06
  73    1.6918009881449e-05
  74    0.00021127749085852
  75    -0.00013379892648956
  76    -0.0030759181467171
  77    0.00087635105199821
  78    5.5152543018892e-05
  79    0.00015704970093195
  80    -0.00028750580951913
  81    0.00014765422559063
  82    -8.7140617411984e-05
  83    -0.00075568478711239
  84    -0.00044393536792502
  85    0.00063894187648405
  86    0.0010112312586454
  87    -0.00043377348883654
  88    0.0010552270767288
  89    0.0014033834432177
  90    -0.00017532927515858
  91    0.00011804172065929
  92    -0.00020414609504919
  93    2.4244760823061e-05
  94    7.2980305976981e-05
 Sym= A
 Ene=               1
 Spin= Alpha
 Occup=    1.00000
   1    -0.00020158326140825
   2    -0.0008685540885593
   3    0.0027662171537721
   4    -0.0010667471553322
   5    3.6853756996226e-05
   6    -0.00011276311714842
   7    0.0011724727674027
   8    -7.5368976857408e-05
   9    0.00036855860742184
  10    9.6387154448388e-05
  11    -5.6549290469225e-06
  12    3.0449805687043e-05
  13    -0.00019349694932942
  14    2.2681806071453e-05
  15       1.0018617911788
  16    -0.00094802391835935
  17    -0.0095369767524271
  18    0.00015505484714033
  19    5.2454772237463e-05
  20    -0.0030612361029491
  21    0.0016305383104414
  22    7.1043263808791e-05
  23    -0.0015927983135398
  24    -0.00010063202285678
  25    -0.00011382043441143
  26    -1.4985556230755e-05
  27    -0.00030730174986413
  28    8.8814898152994e-06
  29    -0.0030759357566015
  30    0.00087634216946175
  31    -5.5152474099516e-05
  32    -7.743813732728e-06
  33    0.00032751307053063
  34    0.0001265855799631
  35    -0.00012720090492309
  36    -0.0006245353857363
  37    0.00045063355651697
  38    -0.001055259085981
  39    -0.00055847916987085
  40    0.00041967414253506
  41    -0.0015849775841365
  42    -0.00066036006136597
  43    3.8052898931226e-05
  44    6.3447200737694e-05
  45    -0.00021572531445069
  46    0.00014411920752278
  47    0.00011786659769279
  48    0.00014765407236251
  49    -8.7137578283209e-05
  50    -0.00075568051746149
  51    0.00044397808463884
  52    0.0010589437254615
  53    -0.00055626795430726
  54    0.00043380361140037
  55     0.001615536990658
  56    -0.00068774246992799
  57    3.8279657444735e-05
  58    6.5737265229251e-05
  59    0.00022307144654015
  60    0.00014757149331818
  61    -0.00012222413135465
  62    -2.304968043326e-05
  63    2.3241021031247e-05
  64    4.6478827814927e-05
  65    0.00015840145335118
  66    7.6501399337162e-05
  67    5.6058630160178e-05
  68    0.00032480236172399
  69    -2.1405899398819e-05
  70    -6.4249349148938e-06
  71    -1.9848641853808e-05
  72    -3.6115375052897e-06
  73    -2.1951214849395e-06
  74    1.8798879197089e-05
  75    2.1208757653885e-06
  76    2.5902009490755e-06
  77    0.00041862753964939
  78    6.6229855495698e-05
  79    -1.7618088788637e-05
  80    2.6527881161982e-05
  81    1.1386492329793e-05
  82    0.00013238841834921
  83    -2.7715073458587e-05
  84    0.00028464678094956
  85    -9.4812383302547e-05
  86    -5.2174358986291e-05
  87    0.00033402666687856
  88    2.0289529716323e-05
  89    -2.109412476532e-05
  90    2.0390285404937e-06
  91    -2.5117474385521e-06
  92    1.004947379184e-05
  93    1.5750591283707e-05
  94    6.0637076394437e-06
 Sym= A
 Ene=               2
 Spin= Alpha
 Occup=    1.00000
   1    -5.150717762962e-05
   2    3.8237834573356e-05
   3    0.0040302278906961
   4    -0.00025368159573407
   5    -0.00054046239798697
   6    5.6956187877764e-06
   7    0.00038365610196418
   8    -0.0015146298435981
   9    0.00032355791096914
  10    3.4839171995018e-05
  11    -1.7490977062436e-05
  12    1.6830837749611e-05
  13    6.8625046457661e-05
  14    -3.0619355786277e-05
  15    7.544083773966e-05
  16    0.00010161234708068
  17    -0.0017574663584852
  18    0.00011989495541607
  19    -1.8925388039016e-05
  20    -2.410884028331e-06
  21    0.00092086672764572
  22    0.00038454471883067
  23    1.8009247578409e-05
  24    -1.5251763326228e-05
  25    2.0668659592835e-06
  26    1.5051239655301e-05
  27    -0.00010219621633393
  28    -2.1339759691328e-05
  29    0.00014637197070945
  30    -0.00015150355681533
  31    6.3877068307746e-06
  32    -2.6610538793638e-05
  33    -9.3193010631077e-06
  34    -2.4194171392401e-05
  35    -4.3238715581964e-05
  36    0.00021096187026277
  37    -2.7788305893086e-06
  38    -2.0430580424751e-05
  39    -3.0263975368297e-05
  40    -2.0046170937103e-05
  41    3.3128981894834e-05
  42    7.3336818303991e-05
  43    1.0898914800081e-05
  44    6.2624912262286e-06
  45    -7.4815977213818e-06
  46    -1.6071163254898e-05
  47    -1.9475941325374e-06
  48    -2.4101407054103e-05
  49    -3.8791158688311e-05
  50    0.00013472724486531
  51    2.6133437743713e-05
  52    -6.8693855341117e-06
  53    7.845515081563e-06
  54    -0.00018826135257171
  55    -5.1742426085691e-05
  56    -8.6346411118981e-06
  57    -8.6105284788157e-06
  58    1.4697773362639e-06
  59    4.8132515870865e-06
  60    -5.2717747566983e-06
  61     2.10120788312e-06
  62       1.0010180533197
  63    -0.0041957586912234
  64    -0.011408627738667
  65    0.0010687268689103
  66    0.0029406162965769
  67    -7.4657107899521e-05
  68    -1.2844677012858e-05
  69    -7.402723572296e-05
  70    -8.2942217948864e-05
  71    6.7094075601625e-05
  72    3.5337818569784e-06
  73    9.6580147241627e-07
  74    0.00011405765118881
  75    -8.5600662516124e-05
  76    -0.00023910436373615
  77    -0.0001393949118297
  78    -9.2650725647307e-07
  79    0.0001794604608576
  80    -3.6297688860147e-05
  81    0.00010374339767695
  82    0.00019253885446347
  83    -0.00074724413052769
  84    -5.5992030606713e-06
  85    -3.3223105398146e-05
  86    3.8447981070584e-05
  87    -5.8828809843971e-05
  88    0.00041195986180819
  89    0.0001035214438039
  90    5.272532945102e-06
  91    -4.1088121662067e-06
  92    -2.835992562378e-05
  93    1.3451830912425e-05
  94    1.7415879854594e-05
 Sym= A
 Ene=               3
 Spin= Alpha
 Occup=    1.00000
   1    7.5436933102118e-05
   2    0.00010161377275975
   3    -0.0017573774625411
   4    -0.00011988169767155
   5    -1.7580457136384e-05
   6    -7.3692827079587e-06
   7    -0.00092083075357141
   8    0.00034205497407032
   9    0.0001766926716739
  10    1.3036688600986e-06
  11    1.2465919389165e-05
  12    4.8162900641562e-05
  13    -9.2636437850364e-05
  14    1.7455031460783e-05
  15    -5.1537084736547e-05
  16    3.8105654827393e-05
  17    0.0040301329246649
  18    0.0002536197863795
  19    -0.00046511677446489
  20    -0.00027504335441891
  21    -0.00038362683222422
  22    -0.0011499846799083
  23    -0.0010375091305297
  24    -5.7530866977849e-06
  25    1.6405034542737e-07
  26    -6.4281257377894e-05
  27    4.5184934078044e-05
  28    3.5245309822148e-05
  29    -0.00023914793582581
  30    -0.00013939832677919
  31    9.1779215199555e-07
  32    0.00013727775627542
  33    0.0001211642859462
  34       1.0010180807079
  35    -0.004194195398652
  36    -0.011406829835952
  37    -0.0010683779734766
  38    0.0025082558418423
  39    0.0015353780593654
  40    1.3082910950654e-05
  41    -0.00010631132690132
  42    3.5106053623181e-05
  43    1.6532228944489e-05
  44    4.5859502038192e-05
  45    -0.00010019328749415
  46    8.4870828198668e-05
  47    7.2377335814268e-05
  48    0.00010374129008374
  49    0.00019255747285038
  50    -0.00074717506632721
  51    5.5810902905568e-06
  52    -9.5982598686761e-06
  53    -4.9908298985224e-05
  54    5.8810025197511e-05
  55    0.00040847730779691
  56    0.00011633214712484
  57    2.1653661007326e-05
  58    -1.2266766859352e-05
  59    4.4002647923893e-06
  60    2.2911495494065e-05
  61    -1.3028073425793e-05
  62    -2.4195885143775e-05
  63    -4.3245940569926e-05
  64    0.00021096171007702
  65    2.7766398681689e-06
  66    -3.282102035066e-05
  67    1.6002900841509e-05
  68    2.0048393786513e-05
  69    6.5353973463893e-05
  70    -4.6946088958746e-05
  71    1.5902053908689e-05
  72    6.3971509782459e-06
  73    2.5259060640171e-06
  74    -1.3180986167337e-05
  75    -1.4449674255844e-06
  76    0.00014637483470143
  77    -0.00015150864236331
  78    -6.38662779342e-06
  79    -2.7704642139943e-05
  80    -5.234689353906e-06
  81    -2.4100028210501e-05
  82    -3.8792798425357e-05
  83    0.0001347032558496
  84    -2.6139089624316e-05
  85    -2.0235169161518e-06
  86    -1.0221437670269e-05
  87    0.0001882546288817
  88    -4.9123347015231e-05
  89    -1.8384659899579e-05
  90    -7.8499933294732e-06
  91    2.2169324904975e-07
  92    6.3340589812709e-06
  93    -4.8324531480381e-06
  94    -2.5546436046506e-06
 Sym= A
 Ene=               4
 Spin= Alpha
 Occup=    1.00000
   1    -3.4800084615358e-05
   2    6.6706083555202e-05
   3    0.0037891309043835
   4    -0.00025572115339437
   5    0.0002572184174798
   6    0.00046951362765195
   7    0.00032139306237289
   8    0.00045797720748134
   9    0.0013886445156465
  10    -4.4752782504249e-05
  11    3.318859077192e-05
  12    -5.558226058746e-05
  13    1.4336605085987e-05
  14    9.6590037312341e-06
  15    7.9385309253064e-05
  16    0.0001208869208819
  17    -0.0015864242382655
  18    0.00014695756739382
  19    1.6409865916971e-05
  20    4.8711751066057e-05
  21    0.00078130097333421
  22    -1.5616732153781e-05
  23    -0.00029746049963547
  24    9.5586243709775e-05
  25    5.0039618415873e-05
  26    5.2584878259563e-05
  27    -5.0961524433282e-05
  28    -8.321421747021e-06
  29    7.8174350588294e-05
  30    -5.4998742002507e-05
  31    5.8299848059042e-05
  32    -2.1229006089466e-05
  33    1.6865620148467e-05
  34    -2.4053743124678e-05
  35    -4.0487638552094e-05
  36    0.00015204808779885
  37    1.2865855089362e-05
  38    7.6412764307742e-06
  39    -6.0207542216886e-06
  40    -0.00013002701498599
  41    2.0685905715686e-05
  42    5.4543548788732e-05
  43    1.2298037640915e-05
  44    1.8577728371624e-06
  45    5.465659789646e-06
  46    3.107593874435e-06
  47    2.6942506385441e-06
  48    1.7785571944343e-05
  49    4.1596299383644e-05
  50    1.9501124542272e-05
  51    -2.603662159721e-05
  52    -6.0711226294678e-06
  53    7.5297608324735e-06
  54    4.5936984531922e-06
  55    -3.189003798638e-05
  56    7.7175018105899e-06
  57    7.6203240009893e-06
  58    6.6831472070984e-06
  59    -8.0236414586754e-06
  60    -1.1706379436888e-05
  61    2.9531876124482e-06
  62    9.9595675954703e-05
  63    0.00018337058654612
  64    -0.00071073701975827
  65    -3.1326619443245e-06
  66    -1.9525891985902e-05
  67    4.1440441616968e-05
  68    -6.3840581302094e-05
  69    -0.00027609772761338
  70    -0.00028332191860874
  71    1.1239569898041e-05
  72    -1.6711019391454e-05
  73    -2.2574606983983e-05
  74    1.3766250784846e-05
  75    -5.2072358524096e-06
  76    -0.00025035179510011
  77    -0.00013674278229497
  78    -5.2668495412483e-06
  79    -5.3620758141268e-05
  80    -0.00017463683267216
  81       1.0010102655987
  82    -0.0041988764966591
  83    -0.011325486373184
  84    0.0011088188853834
  85    -0.0014606597569356
  86    -0.002525001074287
  87    -7.6395503606582e-06
  88    1.9687844081724e-05
  89    3.837750499917e-05
  90    -8.4950282390144e-05
  91    7.4308811805734e-05
  92    -9.7209137838263e-05
  93    2.4683221910216e-05
  94    3.3742976663844e-05
 Sym= A
 Ene=               5
 Spin= Alpha
 Occup=    1.00000
   1    7.9385403609053e-05
   2    0.00012088640504179
   3    -0.0015864280112663
   4    -0.0001469564715529
   5    3.8566330635605e-05
   6    -3.3978480221851e-05
   7    -0.00078129540384899
   8    -0.00016225440715571
   9    0.00024980825058037
  10    3.1336066664437e-05
  11    4.7496763346745e-05
  12    -7.5915804507804e-05
  13    -8.805534446637e-05
  14    -1.7813710918909e-05
  15    -3.4803188429259e-05
  16    6.6694282910799e-05
  17     0.003789125355465
  18    0.00025571335591712
  19    0.00045749756506275
  20    -0.00027799758362463
  21    -0.00032139245445691
  22     0.001090936045186
  23    -0.00097362225162627
  24    1.0617102382269e-05
  25    2.3911218474892e-05
  26    5.5142566891954e-05
  27    4.6303123836408e-05
  28    -2.4961952813538e-05
  29    -0.00025034625655609
  30    -0.00013673173003415
  31    5.2665692793956e-06
  32    -0.00013375542044679
  33    0.00012442984314976
  34    9.9596108126678e-05
  35    0.00018336925813654
  36    -0.00071074394760535
  37    3.1589853492623e-06
  38    3.8122769848389e-06
  39    -4.5647875808581e-05
  40    6.3859624245304e-05
  41    -0.00038076818443122
  42    0.00010731762427459
  43    2.0975555669119e-05
  44    -1.1868453639396e-05
  45    -3.1033340410697e-06
  46    1.9386966122678e-05
  47    1.2865459048474e-05
  48       1.0010102683948
  49    -0.0041987021628725
  50     -0.01132528438729
  51    -0.0011088300326088
  52    -0.002527445620786
  53    0.0014562413175561
  54    7.6310379379885e-06
  55    3.6255087177674e-05
  56    -2.3490799194396e-05
  57    1.4467117262777e-05
  58    4.748276808076e-05
  59    0.00010163154539174
  60    8.2083166247033e-05
  61    -6.637642208351e-05
  62    -2.4053758001607e-05
  63    -4.0487677794957e-05
  64    0.00015204886968581
  65    -1.2877693167789e-05
  66    3.6099757410286e-06
  67    9.0441825171129e-06
  68    0.00013001757743136
  69    4.5189098878975e-05
  70    -3.6887302823769e-05
  71    2.9142116444397e-06
  72    2.619055900358e-07
  73    -1.3301764501515e-05
  74    -2.3103681282073e-06
  75    -3.2623720476205e-06
  76    7.8173929657237e-05
  77    -5.4988809876092e-05
  78    -5.8299035782288e-05
  79    -9.9521349209295e-06
  80    -2.5220610132967e-05
  81    1.7785765154192e-05
  82    4.1596224908603e-05
  83    1.9498364149607e-05
  84    2.6034569548866e-05
  85    -1.490442050333e-06
  86    -9.556540704899e-06
  87    -4.5957047171662e-06
  88    -2.3757079293167e-05
  89    -2.2628655450158e-05
  90    1.3314912143337e-05
  91    4.3112100043173e-06
  92    3.3655735007985e-06
  93    -8.4185821622479e-06
  94    -5.8991221683521e-06
 Sym= A
 Ene=               6
 Spin= Alpha
 Occup=    1.00000
   1    -0.0025283250152169
   2    -0.0020784406999235
   3      0.02633630699112
   4    0.0081812430957412
   5    0.0022229243435333
   6     0.019161912550379
   7      0.03714889580217
   8     0.015867087371923
   9     0.032314359111861
  10    0.0032202430216913
  11    -0.006296420956069
  12    -0.029548143290156
  13    -0.017674299592006
  14    -0.023157063859314
  15    -0.0013403534547071
  16    -0.020784321241989
  17    -0.066339605910116
  18     0.031778933919629
  19    -0.0012671375743515
  20    -0.0015329094413323
  21     0.031924255249794
  22    -0.024336614047639
  23    -0.008152867687373
  24    -0.00033646132337389
  25    -0.00052223937899678
  26    -0.00085236909715183
  27    -0.0017923557585075
  28    -0.001230027727331
  29    -0.00043575931988051
  30     0.014695034790513
  31    0.0013390484457578
  32     0.001147241807389
  33    -0.00048442378257728
  34    0.00038113135753997
  35    -0.0016438001277749
  36    -0.0092554597842969
  37    0.0022671928120797
  38    0.0031524167359904
  39    -0.0049673872919469
  40    -0.0023436149590747
  41    0.00030943615461141
  42    -0.0036956075025983
  43    -0.00012400051757307
  44    -0.00026227062921361
  45    -0.00038920177331283
  46    0.00033606070295074
  47    0.0007888928714172
  48    -0.0012393202710948
  49    -0.00053836988230606
  50     0.014024365690148
  51    -0.0040425887515927
  52    -0.0039620589223438
  53    0.0038256960567657
  54    -0.0063117348148214
  55    -0.0047722297976207
  56    0.0069178498352062
  57    8.7197375780148e-05
  58    0.00031955623211766
  59    -0.00016120809785143
  60    -0.00022891979643374
  61    -0.00039340023787439
  62    -0.0012097230281271
  63    -0.0016385676231287
  64    0.0091479389201734
  65      0.44378866963033
  66     -0.14114754531337
  67      0.47845287878873
  68      0.30719534227941
  69    -0.095353620426618
  70      0.33065316343816
  71    -0.00031420282159224
  72    0.0037537242681416
  73    0.0098343417098831
  74    0.0060259134623851
  75    0.0080105078610761
  76     0.043048879614955
  77     0.049390703601211
  78    -0.0023052136536526
  79    -0.0026918494407603
  80    -0.0017435013010812
  81    0.0013861668146307
  82    -0.0032161335944902
  83    -0.024239028296207
  84    -0.0044532201202259
  85     0.010036867954707
  86    0.0053537329609735
  87    -0.0083676992985598
  88    0.0091189488451941
  89    0.0069580351039426
  90    4.0311511128823e-05
  91    -0.00014651463196748
  92    -0.00050267543414073
  93    -0.00060728580294731
  94    -0.00034330995172638
 Sym= A
 Ene=               7
 Spin= Alpha
 Occup=    1.00000
   1    0.00091002870780101
   2     0.025898939124387
   3     0.082281355033585
   4     0.032888904638791
   5    0.0023933864490163
   6    -0.0081403952114354
   7     0.014801155685926
   8    -0.013512861451129
   9    -0.0094012517542338
  10    0.00043740693545774
  11    -0.0010081079775416
  12    0.0011197121404472
  13    0.00084617828883298
  14    0.00088632115751563
  15    0.0026725996599662
  16    0.0045064560887014
  17    -0.011738206996204
  18     0.010825361349545
  19    0.0055999441133434
  20     0.010480206872908
  21     0.032357304017335
  22     0.021317115723846
  23     0.015556303298811
  24    -0.024365687001877
  25    -0.0089967836592854
  26     0.018030507054816
  27    0.0088873707967912
  28     0.025368243846311
  29    -0.040494002652526
  30    -0.044013229380688
  31    -0.0021680207363556
  32    -0.003002291010461
  33    -0.00022222999694119
  34    -0.00092216481736967
  35    0.00078789707972914
  36     0.013595625692309
  37    -0.004203909296872
  38    0.0041568157202553
  39    -0.0015630700097885
  40    -0.0065667578542314
  41    0.0044124762183597
  42    0.0001051738898645
  43    -0.0004861583473173
  44    -0.00012329611387855
  45    0.00043239770964094
  46    0.00026239686069092
  47    0.00041563083613683
  48    0.0014044929814705
  49    -0.0062506817125315
  50    -0.018964763969929
  51      0.51663897624586
  52     0.048959249482181
  53      0.42117918229437
  54      0.35876319211924
  55      0.03547028099944
  56      0.28985454980772
  57    0.0077546640325277
  58    0.0020218462286436
  59    -0.0066355123594008
  60    -0.0030317096791807
  61    -0.0092782717362231
  62    0.0008330201634748
  63    -0.0019934160205684
  64    -0.018255106252493
  65    -0.0067024481658351
  66    -0.0068260215210817
  67     0.002064976216413
  68    -0.0041535179832191
  69    -0.010450905058442
  70    0.0014548913228159
  71    -9.9339058990632e-05
  72    -0.0001044174184492
  73    -0.00014519092784346
  74    0.00057304813136556
  75    0.00057361871477164
  76    0.0078745883797771
  77    -0.029850630665327
  78    -0.0037376143946748
  79    -0.00082761333125325
  80    0.0012308843336152
  81    0.00010469532938862
  82    -0.0011249005349338
  83    -0.0047459663588804
  84    -0.0029244765275483
  85    0.0015362158203055
  86    0.0039090055439447
  87    -0.0037065847194082
  88    0.0051537688031715
  89    0.0045151600706639
  90    -2.0510488413042e-05
  91    -0.00038108631143875
  92    -0.00021779084549082
  93    0.00026145815409746
  94    -0.00016166440436047
 Sym= A
 Ene=               8
 Spin= Alpha
 Occup=    1.00000
   1    -0.0026718749269625
   2    -0.0045004954415824
   3      0.01174622486632
   4     0.010817921860696
   5    -0.010103745865427
   6    0.0062796601497126
   7     0.032352262557952
   8    -0.026255381055296
   9    0.0028155855062295
  10       0.0306813053679
  11     0.020468420128912
  12    -0.0054184910968761
  13    -0.0052351237094286
  14     0.017469971446115
  15    -0.00090876025394724
  16    -0.025891800152213
  17    -0.082277522603512
  18     0.032881605932129
  19    0.0019966004995449
  20    -0.0082462695719523
  21     0.014799812430322
  22     0.016399740303089
  23    -0.0013884517283282
  24    0.00074956981184187
  25    0.0013159332950711
  26    0.0012538385075064
  27    -0.00016055631949324
  28    0.00026365853683493
  29    -0.0078719919873129
  30     0.029849981151951
  31    -0.0037375395358203
  32    0.00010108816697132
  33    0.0014793497315055