[Molden Format]
made by pyscf v[2.0.1]
[Atoms] (AU)
C   1   6     0.00000000000000     0.00000000000000     0.00000000000000
C   2   6     2.85272299873892     0.00000000000000     0.00000000000000
H   3   1     3.62066923017674     0.00000000000000     1.90331545357504
F   4   9     3.65943188126013    -2.04308229183900    -1.24074875274501
F   5   9     3.65943188126013     2.04308229183900    -1.24074875274501
F   6   9    -0.80670888252121     2.04308229183900     1.24074875274501
H   7   1    -0.76794623143782     0.00000000000000    -1.90331545357504
F   8   9    -0.80670888252121    -2.04308229183900     1.24074875274501
[GTO]
1 0
 s    8 1.00
                  6665  0.00069158396281299
                  1000  0.0053257961529341
                   228   0.027060721042034
                 64.71    0.10165684614077
                 21.06     0.2745748236174
                 7.495    0.44829431892377
                 2.797    0.28490261071525
                0.5215   0.015194859206082
 s    8 1.00
                  6665  -0.00029326965268655
                  1000  -0.0023180354739745
                   228  -0.011499786038565
                 64.71  -0.046826727009787
                 21.06   -0.12846616875047
                 7.495   -0.30126627246289
                 2.797   -0.25563070233011
                0.5215      1.093793361012
 s    1 1.00
                0.1596                   1
 p    3 1.00
                 9.439   0.056979251590039
                 2.002    0.31320721150073
                0.5456    0.76037674173753
 p    1 1.00
                0.1517                   1
 d    1 1.00
                  0.55                   1

2 0
 s    8 1.00
                  6665  0.00069158396281299
                  1000  0.0053257961529341
                   228   0.027060721042034
                 64.71    0.10165684614077
                 21.06     0.2745748236174
                 7.495    0.44829431892377
                 2.797    0.28490261071525
                0.5215   0.015194859206082
 s    8 1.00
                  6665  -0.00029326965268655
                  1000  -0.0023180354739745
                   228  -0.011499786038565
                 64.71  -0.046826727009787
                 21.06   -0.12846616875047
                 7.495   -0.30126627246289
                 2.797   -0.25563070233011
                0.5215      1.093793361012
 s    1 1.00
                0.1596                   1
 p    3 1.00
                 9.439   0.056979251590039
                 2.002    0.31320721150073
                0.5456    0.76037674173753
 p    1 1.00
                0.1517                   1
 d    1 1.00
                  0.55                   1

3 0
 s    3 1.00
                 13.01   0.033498726389998
                 1.962    0.23480080117413
                0.4446     0.8136829578829
 s    1 1.00
                 0.122                   1
 p    1 1.00
                 0.727                   1

4 0
 s    8 1.00
                 14710  0.00072067370873197
                  2207  0.0055504869689163
                 502.8   0.028254207662589
                 142.6    0.10639582836653
                 46.47    0.28668420124307
                  16.7    0.44843796582416
                 6.356    0.26464118141135
                 1.316   0.015326060993048
 s    8 1.00
                 14710  -0.00032119389049893
                  2207  -0.0025461915683188
                 502.8  -0.012643359507821
                 142.6   -0.05195749170489
                 46.47   -0.14344713812646
                  16.7   -0.33243762329603
                 6.356   -0.21865906750347
                 1.316     1.0955904138622
 s    1 1.00
                0.3897                   1
 p    3 1.00
                 22.67   0.064834021493887
                 4.977    0.34053535983101
                 1.347    0.73464640679382
 p    1 1.00
                0.3471                   1
 d    1 1.00
                  1.64                   1

5 0
 s    8 1.00
                 14710  0.00072067370873197
                  2207  0.0055504869689163
                 502.8   0.028254207662589
                 142.6    0.10639582836653
                 46.47    0.28668420124307
                  16.7    0.44843796582416
                 6.356    0.26464118141135
                 1.316   0.015326060993048
 s    8 1.00
                 14710  -0.00032119389049893
                  2207  -0.0025461915683188
                 502.8  -0.012643359507821
                 142.6   -0.05195749170489
                 46.47   -0.14344713812646
                  16.7   -0.33243762329603
                 6.356   -0.21865906750347
                 1.316     1.0955904138622
 s    1 1.00
                0.3897                   1
 p    3 1.00
                 22.67   0.064834021493887
                 4.977    0.34053535983101
                 1.347    0.73464640679382
 p    1 1.00
                0.3471                   1
 d    1 1.00
                  1.64                   1

6 0
 s    8 1.00
                 14710  0.00072067370873197
                  2207  0.0055504869689163
                 502.8   0.028254207662589
                 142.6    0.10639582836653
                 46.47    0.28668420124307
                  16.7    0.44843796582416
                 6.356    0.26464118141135
                 1.316   0.015326060993048
 s    8 1.00
                 14710  -0.00032119389049893
                  2207  -0.0025461915683188
                 502.8  -0.012643359507821
                 142.6   -0.05195749170489
                 46.47   -0.14344713812646
                  16.7   -0.33243762329603
                 6.356   -0.21865906750347
                 1.316     1.0955904138622
 s    1 1.00
                0.3897                   1
 p    3 1.00
                 22.67   0.064834021493887
                 4.977    0.34053535983101
                 1.347    0.73464640679382
 p    1 1.00
                0.3471                   1
 d    1 1.00
                  1.64                   1

7 0
 s    3 1.00
                 13.01   0.033498726389998
                 1.962    0.23480080117413
                0.4446     0.8136829578829
 s    1 1.00
                 0.122                   1
 p    1 1.00
                 0.727                   1

8 0
 s    8 1.00
                 14710  0.00072067370873197
                  2207  0.0055504869689163
                 502.8   0.028254207662589
                 142.6    0.10639582836653
                 46.47    0.28668420124307
                  16.7    0.44843796582416
                 6.356    0.26464118141135
                 1.316   0.015326060993048
 s    8 1.00
                 14710  -0.00032119389049893
                  2207  -0.0025461915683188
                 502.8  -0.012643359507821
                 142.6   -0.05195749170489
                 46.47   -0.14344713812646
                  16.7   -0.33243762329603
                 6.356   -0.21865906750347
                 1.316     1.0955904138622
 s    1 1.00
                0.3897                   1
 p    3 1.00
                 22.67   0.064834021493887
                 4.977    0.34053535983101
                 1.347    0.73464640679382
 p    1 1.00
                0.3471                   1
 d    1 1.00
                  1.64                   1

[5d]
[7f]
[9g]

[MO]
 Sym= A
 Ene=               0
 Spin= Alpha
 Occup=    1.00000
   1    -0.00020925602033126
   2    7.8020453316803e-05
   3    0.0031678027389421
   4    0.00047620838536116
   5    -4.0637555153199e-10
   6    -9.1367115768814e-06
   7    0.0015378522854987
   8    -1.4184200037908e-10
   9    0.00044343081723989
  10    -4.0529062288762e-05
  11    9.5406911055234e-05
  12    1.9113029545433e-10
  13    8.3920013792457e-05
  14    3.2249295932367e-10
  15       1.0019103499523
  16     0.004219215649108
  17    -0.0073947154580812
  18    0.00059151390644287
  19    4.6031014483234e-09
  20    -0.0011212731713799
  21    0.0015864279314561
  22    3.0446246816424e-10
  23    -0.00074316210304599
  24    -8.3186351581961e-05
  25    -0.00011498674137484
  26    -1.0064632821349e-09
  27    -0.00033447247595416
  28    4.2850883664281e-10
  29    0.00097210771776603
  30    0.0015387543046733
  31    -0.00022315317710915
  32    1.604804635801e-10
  33    -6.6128841182507e-05
  34    0.00015385758029519
  35    0.00067284710669262
  36    -0.00014272772593823
  37    -7.2861535523249e-05
  38    0.00030679213566265
  39    0.00014223978511424
  40    0.0001323843339784
  41    -0.00078009139211435
  42    -0.00040332665476737
  43    4.1303613293504e-05
  44    2.964881882045e-05
  45    -0.0001147550191753
  46    8.7067631185656e-05
  47    7.0711380153514e-05
  48    0.00015385901783675
  49    0.00067284827152977
  50    -0.00014272775918185
  51    -7.286586263574e-05
  52    -0.00030680411467312
  53    0.00014223985229653
  54    0.00013238158171109
  55    0.00078008354949204
  56    -0.00040332702545577
  57    4.130349922439e-05
  58    2.9648708843635e-05
  59    0.00011475477653337
  60    8.7067445341183e-05
  61    -7.0711142153685e-05
  62    -5.0478424132005e-06
  63    -5.5179335946896e-07
  64    -0.0001669532510642
  65    2.8224698278888e-06
  66    -1.1202180006412e-05
  67    8.3628972327363e-06
  68    8.2613737493399e-05
  69    9.1563271769893e-05
  70    -3.9647499161195e-05
  71    -1.8168327723168e-05
  72    -1.2316888865509e-05
  73    1.3567749687494e-05
  74    2.3689772619561e-05
  75    -1.0438085894787e-05
  76    -5.0624582939336e-05
  77    0.00043879949533864
  78    9.8268217525461e-05
  79    3.4025042952212e-11
  80    2.0818599587323e-05
  81    -5.0477963818184e-06
  82    -5.5542809595263e-07
  83    -0.00016695769875197
  84    2.8200624834097e-06
  85    1.1202248674462e-05
  86    8.3569896572905e-06
  87    8.2611988846708e-05
  88    -9.1563354618674e-05
  89    -3.9651555405062e-05
  90    -1.8168237621416e-05
  91    -1.2316910656595e-05
  92    -1.3567839425221e-05
  93    2.3689756023771e-05
  94    1.0438045024415e-05
 Sym= A
 Ene=               1
 Spin= Alpha
 Occup=    1.00000
   1       1.0019103500283
   2     0.004219218163707
   3    -0.007394715229949
   4    -0.00059151591494137
   5    5.9232710648911e-09
   6    0.0011212728861565
   7    -0.0015864290766984
   8    4.8104524420355e-11
   9    0.00074316164270409
  10    -8.3186592711461e-05
  11    -0.00011498710666954
  12    1.622147929338e-09
  13    -0.00033447228313138
  14    5.8795875193055e-12
  15    -0.0002092560525508
  16    7.8020327486036e-05
  17    0.0031678038048914
  18    -0.00047620906884407
  19    -3.7103261949967e-10
  20    9.1364278673353e-06
  21    -0.001537852793464
  22    5.6637686806466e-10
  23    -0.00044343095136315
  24    -4.0529020054057e-05
  25    9.5406924208259e-05
  26    -8.900639175311e-11
  27    8.3920095935504e-05
  28    -2.9634953422907e-10
  29    -5.0624889058899e-05
  30    0.00043879917761353
  31    -9.8268165631224e-05
  32    2.1254523555218e-11
  33    -2.0818548817451e-05
  34    -5.0480028696676e-06
  35    -5.554195642108e-07
  36    -0.00016695748681914
  37    -2.8211724505001e-06
  38    1.1202404956089e-05
  39    -8.3579843418177e-06
  40    -8.2612695648227e-05
  41    -9.1563239174109e-05
  42    3.9650925719023e-05
  43    -1.8168257884463e-05
  44    -1.2316906956086e-05
  45    1.3567821987947e-05
  46    2.3689761256998e-05
  47    -1.0438075333962e-05
  48    -5.0478033546991e-06
  49    -5.5199764298967e-07
  50    -0.00016695390564122
  51    -2.8222417399453e-06
  52    -1.120185019896e-05
  53    -8.3630966907049e-06
  54    -8.2613541003793e-05
  55    9.1563550572317e-05
  56    3.9647298063295e-05
  57    -1.8168329796679e-05
  58    -1.2316890872885e-05
  59    -1.3567732954912e-05
  60    2.3689788672821e-05
  61    1.0438088428901e-05
  62    0.00015385872403174
  63    0.00067285014033095
  64    -0.0001427258777188
  65    7.2867047479404e-05
  66    -0.00030680685361918
  67    -0.0001422398273728
  68    -0.00013238070299273
  69    0.00078008186141507
  70    0.00040332719468102
  71    4.1303460273942e-05
  72    2.9648674415045e-05
  73    -0.00011475467120168
  74    8.7067363735346e-05
  75    7.0711089161287e-05
  76    0.00097210889672858
  77       0.0015387539171
  78    0.00022315325391925
  79    2.5482403460635e-10
  80    6.6129040448782e-05
  81    0.00015385858961568
  82    0.00067284493871673
  83    -0.00014273050267478
  84    7.2849325386756e-05
  85    0.00030679457050437
  86    -0.00014224590318286
  87    -0.00013239274776824
  88    -0.00078008978495459
  89    0.00040332251580037
  90    4.1303711479548e-05
  91    2.964890661548e-05
  92    0.00011475486543809
  93    8.7067462034907e-05
  94    -7.0711582518587e-05
 Sym= A
 Ene=               2
 Spin= Alpha
 Occup=    1.00000
   1    4.3168814057054e-05
   2    4.6869632766652e-05
   3    -0.0012463247717618
   4    -0.00014143995907284
   5    1.9965151195808e-05
   6    -1.3880267838998e-05
   7    -0.00067084881997115
   8    -0.00016785911342891
   9    0.00023341432605022
  10    2.1914313477949e-05
  11    2.088420447395e-05
  12     -3.0959400693e-05
  13    -8.320007568991e-05
  14    -4.1526943525946e-06
  15    -0.00017361348602042
  16    0.00031900627131253
  17    0.0034983879317871
  18    0.00040250091778561
  19    0.00082637764154213
  20    -0.00051755938646256
  21    -0.00017522180476094
  22    0.0012147142243157
  23    -0.0010861013357314
  24    -3.2719828545213e-05
  25    -6.0722344772008e-05
  26    -0.00010029917466556
  27    -5.7749382655693e-05
  28    8.3496795377176e-05
  29    -0.00022574300409142
  30    -6.207093679826e-05
  31    -9.9783780365043e-06
  32    -0.00013862980444888
  33    9.3409601717847e-05
  34    8.6381274929711e-05
  35    0.0001413803004759
  36    -0.00063129251085697
  37    3.911067231418e-06
  38    -3.6496443570272e-05
  39    -4.2039720613017e-05
  40    2.5749691849236e-05
  41    -0.00040127507046627
  42    0.00014877180979026
  43    1.838554775334e-05
  44    -1.2528264093662e-05
  45    -1.1566097914204e-06
  46    1.5341746755344e-05
  47    1.1006593942255e-05
  48        1.001027333513
  49    0.00075109392665731
  50    -0.0058307422224831
  51    -0.00075445630745083
  52    -0.0019636747883708
  53    0.0011863656378343
  54    0.00026704010787821
  55    0.00051958101696516
  56    -0.00024963319835281
  57    1.2965087192321e-05
  58    4.205377337918e-05
  59    8.5583901436216e-05
  60    6.9453179528218e-05
  61    -5.9372615300032e-05
  62    2.6740876852448e-05
  63    5.2948949835463e-05
  64    -4.7874863196456e-05
  65    1.9065576784625e-05
  66    -2.143977710426e-06
  67    1.538696212311e-05
  68    -7.4072215979752e-05
  69    -5.5475463085578e-06
  70    -2.518527464634e-05
  71    8.1970290205873e-06
  72    1.1334050416281e-05
  73    -2.1762512292238e-06
  74    -1.7598715550633e-05
  75    5.6762743010883e-07
  76    8.4720448995245e-05
  77    -8.926568071963e-05
  78    -5.9170290907834e-05
  79    -1.3004593487265e-05
  80    -6.8228091262665e-06
  81    -2.5671898200162e-05
  82    -4.6005304676725e-05
  83    0.00011358231342805
  84    -2.3536937385337e-05
  85    9.3283171816779e-06
  86    7.9399498333137e-07
  87    0.00017842826148062
  88    9.7738263030216e-06
  89    -2.6827557510491e-05
  90    1.1628889599499e-06
  91    3.3298917015208e-06
  92    1.2989878136883e-06
  93    2.9414472813977e-06
  94    -2.401285758121e-06
 Sym= A
 Ene=               3
 Spin= Alpha
 Occup=    1.00000
   1    -0.00017344208658035
   2    0.00032047528064461
   3    0.0034988729161514
   4    -0.00040316756038715
   5    -0.00082800826081026
   6    0.00051861480374929
   7    0.00017544793773339
   8    -0.0012146969160857
   9    0.0010860017395126
  10    -3.2605829463599e-05
  11    -6.0707121413583e-05
  12    -0.00010051189840424
  13    -5.784789040559e-05
  14    8.3423128023102e-05
  15    4.3174579482438e-05
  16    4.6724552113681e-05
  17    -0.0012468962048296
  18    0.00014168935712445
  19    -2.0085334934401e-05
  20    1.3935345572569e-05
  21    0.00067117773732642
  22    0.00016773432035736
  23    -0.0002331893230277
  24    2.1902633675346e-05
  25    2.0836942235002e-05
  26    -3.0978859070012e-05
  27    -8.3185618474221e-05
  28    -4.0845062445948e-06
  29    8.470055519163e-05
  30    -8.9341218562877e-05
  31    5.9163846634439e-05
  32    1.2997769108421e-05
  33    6.8251136461107e-06
  34    2.6732610427339e-05
  35    5.2940340139024e-05
  36    -4.7794198792239e-05
  37    -1.9085275819876e-05
  38    2.138855956085e-06
  39    -1.5403911266127e-05
  40    7.4015197129714e-05
  41    5.5969240399795e-06
  42    2.5146637348369e-05
  43    8.1975529752813e-06
  44    1.1332869074865e-05
  45    -2.1752073318034e-06
  46    -1.7599036207746e-05
  47     5.71076931241e-07
  48    -2.5674263816669e-05
  49    -4.5959280173154e-05
  50    0.0001137665491427
  51    2.3446592547146e-05
  52    -9.3837316252516e-06
  53    -7.5500473734427e-07
  54    -0.00017851053439243
  55    -9.8429558577286e-06
  56    2.6845290027943e-05
  57    1.1651658317076e-06
  58    3.3339972765046e-06
  59    1.3008662752677e-06
  60    2.9370507994214e-06
  61    -2.4070716547436e-06
  62    8.637596440288e-05
  63    0.0001413549854117
  64    -0.00063131350809585
  65    -3.9559896256542e-06
  66    3.6577953173748e-05
  67    4.2058380860073e-05
  68    -2.5788094802015e-05
  69    0.0004013584392271
  70    -0.00014875786671195
  71    1.8369619560377e-05
  72    -1.2517932883814e-05
  73    -1.1544869294364e-06
  74    1.5314830573402e-05
  75    1.1002753209193e-05
  76    -0.00022548357757842
  77    -6.2165845828996e-05
  78    9.9307136286144e-06
  79    0.00013855595620961
  80    -9.3366188631459e-05
  81       1.0010273181891
  82    0.00074324743440814
  83    -0.0058399495199648
  84    0.00075906197053521
  85     0.001968820399164
  86    -0.0011873220773279
  87    -0.00026390835197388
  88    -0.00051612876116872
  89    0.00024904561302147
  90    1.2905035341602e-05
  91    4.1992760112699e-05
  92    8.5497535813885e-05
  93    6.938730477657e-05
  94    -5.9245558074029e-05
 Sym= A
 Ene=               4
 Spin= Alpha
 Occup=    1.00000
   1    -0.00017362054884034
   2    0.00031894712490528
   3    0.0034983661606938
   4    -0.00040247656205841
   5    0.00082630764713648
   6    0.00051751737329639
   7    0.00017520784941096
   8    0.0012147138511068
   9    0.0010861072727152
  10    -3.2724464690485e-05
  11    -6.0725048593861e-05
  12    0.00010029054140129
  13    -5.7742997370068e-05
  14    -8.3502424644399e-05
  15    4.3168845879699e-05
  16    4.6878070509271e-05
  17    -0.0012462948571231
  18    0.00014142597973507
  19    1.9960314696664e-05
  20    1.3878029612454e-05
  21    0.00067083181806011
  22    -0.00016786599847502
  23    -0.00023342493782615
  24    2.1914839223295e-05
  25    2.0886189915456e-05
  26    3.0958384849307e-05
  27    -8.3200591385897e-05
  28    4.1557207998829e-06
  29    8.4721739333516e-05
  30    -8.9263064394716e-05
  31    5.9170618209885e-05
  32    -1.3004829157899e-05
  33    6.8226684276534e-06
  34    -2.5671671532211e-05
  35    -4.6007000832903e-05
  36    0.00011357343423607
  37    2.3538720502375e-05
  38    9.3244901284685e-06
  39    -7.9767645710786e-07
  40    -0.00017842591687206
  41    9.7696210302245e-06
  42    2.6825182578142e-05
  43    1.1627530980119e-06
  44    3.3296743155816e-06
  45    -1.2989642710582e-06
  46    2.9417215314206e-06
  47    2.400948237949e-06
  48    2.674128699443e-05
  49    5.2948521136553e-05
  50    -4.7879382425116e-05
  51    -1.9065399509315e-05
  52    -2.1441012674078e-06
  53    -1.538427632867e-05
  54    7.407464100678e-05
  55    -5.5453988169706e-06
  56    2.5188342776844e-05
  57    8.197041262919e-06
  58    1.1334105952176e-05
  59    2.1762407096728e-06
  60    -1.7598726015777e-05
  61    -5.6740387554433e-07
  62       1.0010273341147
  63    0.00075144290063368
  64    -0.005830334703628
  65    0.00075420564456983
  66    -0.0019634825736145
  67    -0.0011863168090067
  68    -0.00026721134209604
  69    0.00051971005748733
  70    0.00024966405149268
  71    1.2967444718844e-05
  72    4.2057003698022e-05
  73    -8.5587313322264e-05
  74    6.945497671121e-05
  75    5.9378707755988e-05
  76    -0.00022575461852451
  77    -6.2068128765418e-05
  78    9.9804902728143e-06
  79    -0.00013863302799896
  80    -9.341132692416e-05
  81    8.6381699139817e-05
  82    0.0001413814025949
  83    -0.00063129322623565
  84    -3.912024081558e-06
  85    -3.6492740126822e-05
  86    4.2040578082448e-05
  87    -2.5749825462038e-05
  88    -0.0004012721644421
  89    -0.00014877122862677
  90    1.838616179782e-05
  91    -1.2528722911611e-05
  92    1.1566529868974e-06
  93    1.5342768703694e-05
  94    -1.1006822117395e-05
 Sym= A
 Ene=               5
 Spin= Alpha
 Occup=    1.00000
   1    4.317106413353e-05
   2    4.673844766368e-05
   3    -0.0012467834797925
   4    -0.00014165018880707
   5    -2.0049730562996e-05
   6    -1.39065548909e-05
   7    -0.00067108568114017
   8    0.00016774461733436
   9    0.00023327735140685
  10    2.1906667277575e-05
  11    2.0853142506723e-05
  12    3.0973451202796e-05
  13    -8.3192387129865e-05
  14    4.1087903811415e-06
  15    -0.00017350411048391
  16    0.00031998150482296
  17    0.0034987170880777
  18    0.00040295394421177
  19    -0.00082744473928005
  20    -0.0005182776303321
  21    -0.00017539675504747
  22    -0.0012146676584317
  23    -0.0010860608898091
  24    -3.2610373947381e-05
  25    -6.0708294398215e-05
  26    0.00010046700748409
  27    -5.7820933418278e-05
  28    -8.3423840585369e-05
  29    -0.00022551138234105
  30    -6.2072652140514e-05
  31    -9.9443880637523e-06
  32    0.0001385772215084
  33    9.337988196584e-05
  34       1.0010273207431
  35    0.00074604813574606
  36    -0.0058366551211859
  37    -0.00075799261529771
  38    0.0019672170639324
  39      0.00118638934579
  40    0.00026462757033024
  41    -0.00051720167958817
  42    -0.00024966488918903
  43    1.2914396644258e-05
  44    4.2013112654714e-05
  45    -8.5535039392279e-05
  46    6.9410145033039e-05
  47    5.9278549782459e-05
  48    8.6379393964935e-05
  49    0.00014136668922302
  50    -0.00063132528032692
  51    3.9507297573333e-06
  52    3.6554559065098e-05
  53    -4.2053993400466e-05
  54    2.5785380814815e-05
  55    0.00040133763465826
  56    0.00014875946592519
  57    1.8375548125799e-05
  58    -1.2521353804893e-05
  59    1.1554262203342e-06
  60    1.5323004420947e-05
  61    -1.1003679950298e-05
  62    -2.5675094531843e-05
  63    -4.5970147382248e-05
  64    0.00011373044960378
  65    -2.3473518986138e-05
  66    -9.3680414710644e-06
  67    7.6297422444901e-07
  68    0.00017848670079058
  69    -9.8254654774309e-06
  70    -2.6848445988959e-05
  71    1.1644930252327e-06
  72    3.3331586060385e-06
  73    -1.3001482389183e-06
  74    2.9380695743579e-06
  75    2.4056936710529e-06
  76    8.4698649857043e-05
  77    -8.9282092456678e-05
  78    -5.9164832321401e-05
  79    1.300016264779e-05
  80    -6.8243530314572e-06
  81    2.6736525491151e-05
  82    5.2944538943227e-05
  83    -4.7829295519847e-05
  84    1.9083946615926e-05
  85    2.1461136318645e-06
  86    1.5396792206522e-05
  87    -7.4028616819046e-05
  88    5.5853321332428e-06
  89    -2.515958662112e-05
  90    8.1974188406133e-06
  91    1.1333418638163e-05
  92    2.1756806127728e-06
  93    -1.7599238670263e-05
  94    -5.7036841750499e-07
 Sym= A
 Ene=               6
 Spin= Alpha
 Occup=    1.00000
   1    -0.0027392764137068
   2    -0.0029264633048505
   3     0.013844026308177
   4    0.00029896288564981
   5    -0.0019327896150257
   6    0.00025350873778379
   7     0.032084862089084
   8     -0.02162770557137
   9    0.0096014980933552
  10     0.023991344266584
  11     0.010131530217181
  12     0.017606962863668
  13    -0.011094518918686
  14     0.026029806830378
  15    -0.002053810930422
  16    -0.032525694582086
  17    -0.078174993261783
  18     0.043751411563011
  19    0.0017547362749054
  20    -0.0076451345212994
  21     0.024583620341471
  22     0.028278297583666
  23    -0.0040972561839609
  24    0.00010241444103265
  25    0.00067262768279425
  26    0.0021872566519568
  27    -0.0019783904328485
  28    0.00062578679083098
  29    -0.0069882022454159
  30     0.025897815376097
  31    -0.00099880661774029
  32    -0.00032835992768763
  33    0.00019671813085247
  34    -0.0013811619785174
  35    0.0016156298631695
  36     0.021422435693377
  37    -0.0078194811735487
  38    0.0073370432929994
  39    0.0071579224707678
  40    -0.007351267180128
  41    0.0087193388947811
  42    0.0095457873122556
  43    0.00011809288867727
  44    0.00045186294742105
  45    0.00020197972574876
  46    -0.00055217595065958
  47    0.00051375115809816
  48    0.00047917559720934
  49    0.00051429227352032
  50    -0.0048587353250559
  51    -0.00047166783701803
  52    -0.0022458138930571
  53    -0.0022545737564131
  54    -0.003458348922881
  55    -0.002746111703704
  56    -0.0025552045937154
  57    -1.9183975134685e-05
  58    9.5246067303914e-05
  59    0.0002501357060378
  60    -0.00011166867718991
  61    -0.00061991180600903
  62    -0.0016031406089025
  63    0.00079003358807542
  64     0.014388959876248
  65      0.53944701004127
  66    -0.026440218280511
  67      0.39423699817951
  68       0.3751938507554
  69    -0.020350865545774
  70      0.27166434385148
  71    -0.0070959226071615
  72    -0.0024726923897918
  73    -0.0064133251065886
  74    0.0035629148866166
  75    -0.0095597359839747
  76     0.051509844235846
  77     0.048142431525865
  78    -0.0019485974206544
  79    0.0031165690841688
  80    0.00078511697512017
  81    0.00086043994977262
  82    0.00029332952481427
  83    -0.010488940593151
  84    -0.0029955445587176
  85    -0.0023318511198023
  86    -0.0014167305953516
  87    -0.005089789899948
  88    -0.0021448307268072
  89    0.00059432443586752
  90    0.00060045515405391
  91    0.00023676939627961
  92    0.00030688616764994
  93    -0.00036564916418787
  94    0.00032983048414627
 Sym= A
 Ene=               7
 Spin= Alpha
 Occup=    1.00000
   1    -0.0027401241859317
   2    -0.002935159569864
   3     0.013838903165378
   4    0.00030535920747893
   5     0.001929727452829
   6    0.00024504976291333
   7     0.032089455334399
   8     0.021618435166556
   9    0.0095941643799412
  10     0.023985353533285
  11     0.010135549730148
  12    -0.017602831482513
  13    -0.011101917207988
  14    -0.026033202283409
  15    -0.0020546136121472
  16    -0.032530473682467
  17    -0.078177051214799
  18     0.043757541983647
  19    -0.0017543374862365
  20    -0.0076444667599794
  21     0.024587404002166
  22    -0.028279275678903
  23    -0.0040935572377191
  24    0.00010239879152127
  25    0.00067279499607433
  26    -0.0021877074040387
  27    -0.0019787200204412
  28    -0.00062598520971536
  29    -0.006988669642705
  30     0.025896411256975
  31    -0.00099860611302135
  32    0.00032854100873875
  33    0.00019685629403514
  34    0.00047895599435897
  35    0.00051309476110982
  36    -0.0048592364173878
  37    -0.00046941767866707
  38    0.0022461992890587
  39    -0.0022561257717095
  40    -0.0034578210965709
  41    0.0027457725937072
  42    -0.0025562915584566
  43    -1.9222711264346e-05
  44    9.5182849589993e-05
  45    -0.00025021964508405
  46    -0.00011154788616233
  47    0.00062009779677138
  48    -0.0013812795567756
  49    0.0016161371059667
  50     0.021424628704621
  51    -0.0078212460988209
  52    -0.007338162520324
  53    0.0071585287651661
  54    -0.0073533072027382
  55    -0.0087203360407341
  56     0.009546297404316
  57    0.00011813014451831
  58    0.00045188540004064
  59    -0.00020202822717204
  60    -0.00055226201884305
  61    -0.00051383186669588
  62    0.00086003985502514
  63    0.00029752806509774
  64    -0.010475489533157
  65    -0.0029935762268605
  66    0.0023190483044305
  67    -0.001419752711169
  68    -0.0050880613540849
  69    0.0021330280106337
  70    0.00059184126941923
  71    0.00060041770324009
  72    0.00023689957200614
  73    -0.00030675874816641
  74    -0.0003655623694429
  75    -0.0003299613596766
  76     0.051503960044072
  77     0.048139205419168
  78    -0.0019482944723595
  79    -0.0031161091261546
  80    0.00078510710160677
  81    -0.0016084063103221
  82    0.00081166413196856
  83     0.014415845787778
  84      0.53953078873173
  85     0.026318494557818
  86      0.39412965103573
  87      0.37525230676712
  88     0.020267737855842
  89      0.27158980238262
  90    -0.0070936679512714
  91    -0.0024745412493553
  92    0.0064128079681526
  93    0.0035658036331181
  94    0.0095602463266206
 Sym= A
 Ene=               8
 Spin= Alpha
 Occup=    1.00000
   1    0.0020538574939471
   2     0.032525971928315
   3      0.07817512146096
   4     0.043751781772577
   5    -0.0017547199275754
   6    -0.0076450815879364
   7     0.024583870032562
   8    -0.028278371997247
   9    -0.0040970049779718
  10    -0.00010241669795433
  11    -0.00067262659282116
  12    0.0021872961433069
  13    0.0019784018395656
  14    0.00062578576126808
  15    0.0027393043730309
  16    0.0029267881997922
  17    -0.013843746552927
  18    0.00029926930310948
  19    0.0019323491715318
  20    0.00025319863056164
  21     0.032085147898432
  22     0.021627131484176
  23    0.0096010549121218
  24    -0.023990979347866
  25    -0.010131762576555
  26     0.017606739711971
  27     0.011094974859979
  28     0.026029999230542
  29     -0.05150944342604
  30    -0.048142182922609
  31    -0.0019485853738988
  32    -0.0031165496846655
  33    0.00078511957374772