[Molden Format]
made by pyscf v[2.0.1]
[Atoms] (AU)
C   1   6     0.00000000000000     0.88125373745639     1.12114894133204
C   2   6     0.00000000000000    -0.88125373745639    -1.12114894133204
H   3   1     1.67890143805590     2.07106861498177     1.11893447692235
H   4   1    -1.67890143805590     2.07106861498177     1.11893447692235
H   5   1     1.67890143805590    -2.07106861498177    -1.11893447692235
H   6   1    -1.67890143805590    -2.07106861498177    -1.11893447692235
F   7   9     0.00000000000000    -0.55695585395221     3.27181400232624
F   8   9     0.00000000000000     0.55695585395221    -3.27181400232624
[GTO]
1 0
 s    8 1.00
                  6665  0.00069158396281299
                  1000  0.0053257961529341
                   228   0.027060721042034
                 64.71    0.10165684614077
                 21.06     0.2745748236174
                 7.495    0.44829431892377
                 2.797    0.28490261071525
                0.5215   0.015194859206082
 s    8 1.00
                  6665  -0.00029326965268655
                  1000  -0.0023180354739745
                   228  -0.011499786038565
                 64.71  -0.046826727009787
                 21.06   -0.12846616875047
                 7.495   -0.30126627246289
                 2.797   -0.25563070233011
                0.5215      1.093793361012
 s    1 1.00
                0.1596                   1
 p    3 1.00
                 9.439   0.056979251590039
                 2.002    0.31320721150073
                0.5456    0.76037674173753
 p    1 1.00
                0.1517                   1
 d    1 1.00
                  0.55                   1

2 0
 s    8 1.00
                  6665  0.00069158396281299
                  1000  0.0053257961529341
                   228   0.027060721042034
                 64.71    0.10165684614077
                 21.06     0.2745748236174
                 7.495    0.44829431892377
                 2.797    0.28490261071525
                0.5215   0.015194859206082
 s    8 1.00
                  6665  -0.00029326965268655
                  1000  -0.0023180354739745
                   228  -0.011499786038565
                 64.71  -0.046826727009787
                 21.06   -0.12846616875047
                 7.495   -0.30126627246289
                 2.797   -0.25563070233011
                0.5215      1.093793361012
 s    1 1.00
                0.1596                   1
 p    3 1.00
                 9.439   0.056979251590039
                 2.002    0.31320721150073
                0.5456    0.76037674173753
 p    1 1.00
                0.1517                   1
 d    1 1.00
                  0.55                   1

3 0
 s    3 1.00
                 13.01   0.033498726389998
                 1.962    0.23480080117413
                0.4446     0.8136829578829
 s    1 1.00
                 0.122                   1
 p    1 1.00
                 0.727                   1

4 0
 s    3 1.00
                 13.01   0.033498726389998
                 1.962    0.23480080117413
                0.4446     0.8136829578829
 s    1 1.00
                 0.122                   1
 p    1 1.00
                 0.727                   1

5 0
 s    3 1.00
                 13.01   0.033498726389998
                 1.962    0.23480080117413
                0.4446     0.8136829578829
 s    1 1.00
                 0.122                   1
 p    1 1.00
                 0.727                   1

6 0
 s    3 1.00
                 13.01   0.033498726389998
                 1.962    0.23480080117413
                0.4446     0.8136829578829
 s    1 1.00
                 0.122                   1
 p    1 1.00
                 0.727                   1

7 0
 s    8 1.00
                 14710  0.00072067370873197
                  2207  0.0055504869689163
                 502.8   0.028254207662589
                 142.6    0.10639582836653
                 46.47    0.28668420124307
                  16.7    0.44843796582416
                 6.356    0.26464118141135
                 1.316   0.015326060993048
 s    8 1.00
                 14710  -0.00032119389049893
                  2207  -0.0025461915683188
                 502.8  -0.012643359507821
                 142.6   -0.05195749170489
                 46.47   -0.14344713812646
                  16.7   -0.33243762329603
                 6.356   -0.21865906750347
                 1.316     1.0955904138622
 s    1 1.00
                0.3897                   1
 p    3 1.00
                 22.67   0.064834021493887
                 4.977    0.34053535983101
                 1.347    0.73464640679382
 p    1 1.00
                0.3471                   1
 d    1 1.00
                  1.64                   1

8 0
 s    8 1.00
                 14710  0.00072067370873197
                  2207  0.0055504869689163
                 502.8   0.028254207662589
                 142.6    0.10639582836653
                 46.47    0.28668420124307
                  16.7    0.44843796582416
                 6.356    0.26464118141135
                 1.316   0.015326060993048
 s    8 1.00
                 14710  -0.00032119389049893
                  2207  -0.0025461915683188
                 502.8  -0.012643359507821
                 142.6   -0.05195749170489
                 46.47   -0.14344713812646
                  16.7   -0.33243762329603
                 6.356   -0.21865906750347
                 1.316     1.0955904138622
 s    1 1.00
                0.3897                   1
 p    3 1.00
                 22.67   0.064834021493887
                 4.977    0.34053535983101
                 1.347    0.73464640679382
 p    1 1.00
                0.3471                   1
 d    1 1.00
                  1.64                   1

[5d]
[7f]
[9g]

[MO]
 Sym= A
 Ene=               0
 Spin= Alpha
 Occup=    1.00000
   1    -0.00017177574180445
   2    0.00012170218825658
   3    0.0026869941568678
   4    -3.718416403518e-09
   5    -0.00024035533911537
   6    -0.00029251223537944
   7    3.3834911722478e-10
   8    -0.00092663828135112
   9    -0.0010297680784645
  10    -0.00010148027491289
  11    4.9329541876977e-10
  12    -1.6109420282754e-05
  13    -3.2975363019214e-05
  14    1.1502175157001e-10
  15       1.0021036076989
  16     0.004898770901756
  17    -0.008441875665773
  18    -1.2521223072391e-08
  19    0.00040878088946081
  20    -0.00073651813650412
  21    -6.9045556106847e-09
  22    -0.00040070995305098
  23    -0.0011828082720627
  24    -6.2266035861723e-05
  25    1.3422504154779e-09
  26    -0.00014581735434138
  27    4.3597987433369e-05
  28    -6.5437834497215e-10
  29    -7.93521371784e-05
  30    0.00021785512874987
  31    -2.5721926596247e-05
  32    -6.1204480436404e-05
  33    -5.9402856336662e-05
  34    -7.9347200244212e-05
  35    0.00021785837417342
  36    2.5722298151606e-05
  37    -6.1204892579127e-05
  38    -5.940297749061e-05
  39    0.00063787726355529
  40    0.0013877032164988
  41    0.0001311380092018
  42    -0.00011089491920791
  43    0.00013594286812657
  44    0.00063788976098771
  45    0.0013877033883511
  46    -0.00013113720000807
  47    -0.00011089412147493
  48    0.00013594307153576
  49    -3.1503060901358e-05
  50    -5.2282587727054e-05
  51    -1.2172945405127e-05
  52    3.0819618024372e-09
  53    -1.4131330229742e-06
  54    1.6000222598175e-05
  55    2.3250251421577e-09
  56    -5.8928628187987e-05
  57    -7.6252912907393e-05
  58    2.4042368682847e-05
  59    -3.6874178718706e-12
  60    1.504878185426e-05
  61    -1.7833379858758e-05
  62    2.3057868192877e-12
  63    0.00015527916785507
  64    0.00066420224301907
  65    6.3626546672552e-05
  66    -3.5070904069565e-08
  67    -0.00021936824609816
  68    0.00029644976410217
  69    -2.3937417181267e-08
  70    0.00053202216823064
  71    -0.00060743029576572
  72    -0.00012213499900679
  73    -7.3621700129943e-10
  74    0.00017596359285212
  75    6.2906104742909e-05
  76    4.5802167957402e-10
 Sym= A
 Ene=               1
 Spin= Alpha
 Occup=    1.00000
   1       1.0021037466868
   2    0.0048959864611463
   3    -0.0084434560334415
   4    -7.2350818452034e-09
   5    -0.00041096312589184
   6    0.00073656282991692
   7    -1.7528083854114e-09
   8    0.00039980167259097
   9    0.0011828236313326
  10    -6.2140103973813e-05
  11    -1.7372020721472e-11
  12    -0.00014589369132535
  13    4.3523651372231e-05
  14    -5.531360198293e-10
  15    -0.00017168209255145
  16    0.00012078353604689
  17    0.0026865448416379
  18    9.7524863248015e-10
  19    0.00024101641398143
  20    0.0002925041127752
  21    -7.78698082647e-10
  22    0.00092696865675751
  23    0.0010297681130663
  24    -0.00010141636308534
  25    3.1663684740115e-10
  26    -1.6231876177185e-05
  27    -3.2956836998357e-05
  28    -8.5500851629583e-10
  29    0.00063541444629927
  30    0.0013871401753313
  31    0.00013137683067432
  32    0.0001109967790289
  33    -0.00013594234264275
  34    0.0006354255209435
  35     0.001387146112382
  36    -0.00013137642358009
  37    0.00011099613309598
  38    -0.00013594250067436
  39    -8.0188852501138e-05
  40    0.00021758085992843
  41    -2.5640604510656e-05
  42    6.1173802131434e-05
  43    5.9406829015923e-05
  44    -8.0193227398422e-05
  45    0.00021757623032683
  46    2.564065350646e-05
  47    6.1173622529262e-05
  48    5.9406797249849e-05
  49    0.0001551107622897
  50    0.00066430802951306
  51    6.3803755500948e-05
  52    1.3338786389604e-09
  53    0.00021946709872761
  54    -0.00029665738580413
  55    1.3075548809557e-09
  56    -0.00053184366785244
  57    0.00060729228187298
  58    -0.00012212606879728
  59    6.3621786061365e-11
  60    0.00017599920188086
  61    6.2926312472876e-05
  62    -6.3498245998426e-11
  63    -3.1449210192643e-05
  64    -5.224302795783e-05
  65    -1.207905181324e-05
  66    -1.3825679424588e-08
  67    1.3516823523388e-06
  68    -1.5838010106999e-05
  69    -9.7529397465496e-09
  70    5.8879966033858e-05
  71    7.6378633924248e-05
  72    2.4045731864106e-05
  73    -2.213756062706e-10
  74    1.5059247794058e-05
  75    -1.7824571493227e-05
  76    1.1375100631805e-10
 Sym= A
 Ene=               2
 Spin= Alpha
 Occup=    1.00000
   1    2.0884828655408e-05
   2    9.8655368279471e-06
   3    -0.00091736804130437
   4    3.9157016450895e-08
   5    8.6987256348121e-05
   6    6.9564309431974e-05
   7    1.8357250570118e-07
   8    0.00027108274008082
   9    0.00057515094771429
  10    -2.1603865168911e-05
  11    -5.0738579198504e-09
  12    -7.6020507197493e-05
  13    -1.1604765146306e-05
  14    -6.0099462016855e-09
  15    -0.00017037174724721
  16    0.00031329879835513
  17    0.0031203146214896
  18    3.4342547000594e-08
  19    0.00055647523108991
  20    -0.00090320936381861
  21    -1.6288737450637e-07
  22    0.0011745856367245
  23    -0.00080053616087062
  24    0.00012578087233661
  25    1.2523013417174e-07
  26    -0.00014195010556563
  27    -5.2718320838245e-05
  28    -1.0750909617332e-07
  29    2.8649859555193e-05
  30    -0.00011292029233993
  31    1.2469453843992e-05
  32    1.8185694525337e-05
  33    4.2942172868688e-05
  34    2.8652723156587e-05
  35    -0.00011262639389088
  36    -1.2464302822771e-05
  37    1.8175091890822e-05
  38    4.2928105934979e-05
  39    -0.00025565016985527
  40    -0.00013846788127782
  41    -1.979010968812e-06
  42    -0.00011280781590785
  43    9.5534239925336e-05
  44    -0.00025614068324187
  45    -0.00013897148803983
  46    1.9873684919962e-06
  47    -0.00011282460324165
  48    9.5541652793684e-05
  49    -2.9519046999283e-05
  50    -5.1993604303661e-05
  51    0.00013909525821207
  52    -1.1664862477195e-08
  53    2.0428200251218e-05
  54    7.1132831561252e-06
  55    -2.626002086716e-08
  56    -0.00010079762425036
  57    -0.0001513094276497
  58    -1.5470367219922e-06
  59    -8.8091513791212e-10
  60    5.4385112963821e-06
  61    1.0957625605438e-06
  62    -3.6198172025298e-10
  63       1.0009698818935
  64    0.00023856904528774
  65    -0.0059338639510928
  66    -3.0387593170559e-06
  67    -0.0014435438379116
  68    0.0021211161417187
  69    -2.1470068186214e-06
  70    0.00017794045821791
  71    -0.0003476455380068
  72    -7.6476892648803e-05
  73    -4.9752939046616e-08
  74    0.00012448546099566
  75    3.8116587746639e-05
  76    2.9026265176589e-08
 Sym= A
 Ene=               3
 Spin= Alpha
 Occup=    1.00000
   1    -0.0001597517132905
   2    0.00040739775179986
   3    0.0031541103544174
   4    -3.877262290624e-10
   5    -0.00063543766496341
   6    0.0010244450453525
   7    -1.8557666116277e-09
   8    -0.001180460898587
   9    0.00082243673886514
  10    0.00013811642585203
  11    -1.8629602753852e-09
  12    -0.00014622886467294
  13    -5.298515440172e-05
  14    1.4654172263149e-09
  15    2.1962263175574e-05
  16    1.8695905087093e-05
  17    -0.00089851578028735
  18    9.5447426075023e-10
  19    -9.4203954073955e-05
  20    -5.7881560024337e-05
  21    1.9133013259058e-09
  22    -0.00027501942395279
  23    -0.00058259861482342
  24    -1.5694737795259e-05
  25    6.5605600972972e-10
  26    -7.5613297232553e-05
  27    -8.4172605184372e-06
  28    -5.0227184250604e-10
  29    -0.00026212182070257
  30    -0.00016558123863967
  31    -1.6566522181327e-06
  32    0.00010960899682187
  33    -9.1123575786052e-05
  34    -0.00026212736676013
  35    -0.00016558647363127
  36    1.6568556109968e-06
  37    0.00010960910264168
  38    -9.1123768334991e-05
  39    3.3673059508755e-05
  40    -0.00012445118006205
  41    1.2268310129517e-05
  42    -1.8583724304673e-05
  43    -4.2349655707467e-05
  44    3.3670231420861e-05
  45    -0.00012444975473048
  46    -1.2268196550253e-05
  47    -1.8583674176408e-05
  48    -4.2349423580265e-05
  49       1.0009698383906
  50    -0.00038121548278817
  51    -0.0066796335568749
  52    -4.4397839797636e-08
  53    0.0018431225568642
  54    -0.0024045211161091
  55    -3.1393242072724e-08
  56    0.00010134713876558
  57    0.00015455173041926
  58    -7.2679838490194e-05
  59    7.3477668321652e-10
  60    0.00011346807041831
  61    3.3477835501068e-05
  62    -4.3643629203733e-10
  63    -2.8210877977545e-05
  64    -4.9005353834178e-05
  65    0.00013635896363274
  66    -1.5191418132996e-08
  67    -1.7911646733438e-05
  68    -4.6329752543511e-06
  69    -1.1000785627042e-08
  70    0.0001052011612517
  71    0.00015183947981288
  72    -1.7418981541947e-06
  73    -2.3116658555353e-10
  74    5.4648714481947e-06
  75    1.2292632125476e-06
  76    1.4519276893638e-10
 Sym= A
 Ene=               4
 Spin= Alpha
 Occup=    1.00000
   1    -1.3975478739283e-06
   2    -6.1838586507526e-06
   3    9.9843591333349e-07
   4    -0.0075220286624554
   5    5.9837782178214e-06
   6    -5.1239870860068e-06
   7      0.03573046126238
   8    -8.0643862796403e-07
   9    -1.3542653990757e-05
  10    -1.0816642576759e-05
  11     0.027502809621637
  12    -5.1509116165194e-06
  13    -4.5608630923801e-06
  14    -0.023599277636065
  15    -5.7632015011694e-07
  16    -1.3988253210806e-05
  17    -3.0503551969436e-05
  18    -0.0087115862832645
  19    -9.0968598667089e-06
  20    -1.425571040886e-05
  21    -0.040308208648428
  22    -1.4858401853254e-05
  23    -8.1451555445728e-07
  24    -3.2611668485666e-07
  25    -0.0011420537345306
  26    -1.1738239520975e-06
  27    -8.069727385822e-07
  28    -0.0012871052385824
  29     -0.05381593216458
  30    -0.055226152057727
  31    -0.00091868265734722
  32    0.0018406168613835
  33    -0.00081542749758851
  34     0.053836295877785
  35     0.055246613849495
  36    -0.00091832901354723
  37    -0.0018403890692024
  38    0.00081661172392954
  39    0.0001755477565807
  40     0.032180732724926
  41    -0.00056362843494032
  42    0.0011579736787797
  43    0.0015443891356666
  44    -0.00018226042755392
  45    -0.032169852348622
  46    -0.00056398153440299
  47    -0.0011577505845758
  48    -0.0015446584043347
  49    -4.8277802504783e-07
  50    3.4733991377291e-05
  51    4.7858149160751e-05
  52      0.66725258629756
  53    -0.00021332728960925
  54    -0.00011366528409261
  55      0.47144435872768
  56    -0.00015025203275678
  57    -8.2116466023072e-05
  58    3.367164417029e-06
  59    -0.010924805945945
  60    2.3825850741888e-06
  61    2.235777787533e-06
  62    0.0063740836022996
  63    -7.2138319791982e-07
  64    4.4378405574074e-07
  65    9.7470988297898e-06
  66     0.003270197279925
  67    -1.7772899656518e-06
  68    5.0144350969631e-06
  69    0.0062732334249977
  70    -2.7161836627067e-06
  71    5.9466869446296e-06
  72    -2.6185260324218e-07
  73    -0.00018310334758911
  74    -1.129830257812e-07
  75    -1.3525225196935e-07
  76    -8.5162300997659e-05
 Sym= A
 Ene=               5
 Spin= Alpha
 Occup=    1.00000
   1    1.2136929037675e-05
   2    0.00026821154762358
   3    0.00062931202240246
   4    -0.0087113259717233
   5    -0.00017036801106165
   6    -0.00026060167673107
   7    -0.040307030668054
   8    -0.00031201996873324
   9    -1.1487467443444e-05
  10    7.9830180308878e-07
  11    0.0011420119049228
  12    2.1225932961945e-05
  13    1.6611440435568e-05
  14    0.0012870745577871
  15    2.2003774882046e-05
  16    3.5688513383604e-05
  17    -6.7553182142709e-05
  18    -0.0075218069137956
  19    2.8926550484616e-05
  20    -5.5327038531935e-05
  21     0.035729419055294
  22    -3.9338634462593e-05
  23    -0.00029067583128607
  24    0.00022453933925418
  25    -0.027501998404778
  26    0.00011078025984964
  27    0.00010126232326958
  28     0.023598582487965
  29    0.00025134705341252
  30     0.032071640579729
  31    -0.00056747875211217
  32    -0.0011547778582161
  33    -0.0015459892608224
  34    -0.00010648498728486
  35    -0.032277081792404
  36    -0.00056009746700717
  37    0.0011608793468986
  38    0.0015429667521359
  39    -0.054032943888516
  40    -0.055428619507838
  41    -0.00091545298253796
  42     -0.00184120892027
  43    0.00083156102140183
  44     0.053616114472627
  45     0.055040910569833
  46    -0.00092150406181248
  47    0.0018396893969316
  48    -0.00080042911757413
  49    1.4623400017085e-05
  50    -1.0835353982122e-05
  51    -0.00020540900981874
  52     0.003269900661788
  53    -3.55041372254e-05
  54    0.00010645044908699
  55     0.006272906970348
  56    -5.6849563556021e-05
  57    0.00012353023354549
  58    5.2044370341821e-06
  59    0.00018310121405918
  60    2.3224897485175e-06
  61    2.5997627129145e-06
  62    8.5157893480953e-05
  63    1.9958350545903e-05
  64    -0.00023040222470341
  65    -0.00040772762301642
  66      0.66723291369145
  67    -0.0043251779184847
  68    -0.0027057852152326
  69      0.47143045809739
  70    -0.0030454684890907
  71    -0.0019424793233083
  72    -7.7112404531026e-05
  73     0.010924483889459
  74    -4.3258729435358e-05
  75    -4.5271126500278e-05
  76    -0.0063738956311403
 Sym= A
 Ene=               6
 Spin= Alpha
 Occup=    1.00000
   1    -0.0015453646196549
   2     -0.03490014205125
   3    -0.082163768266701
   4    -6.6714205646569e-05
   5     0.022799100919584
   6     0.033608008712563
   7    -0.00030880700133287
   8     0.041471139378526
   9    0.0018987858189545
  10    0.0002452566815669
  11    8.7445093820151e-06
  12    -0.0027603494909155
  13    -0.0020223120296347
  14    9.8567629998592e-06
  15    -0.0022958491864102
  16    0.00095784835779941
  17     0.011083636003935
  18    -5.7476733875995e-05
  19    0.00087695920824096
  20    0.00048535474452036
  21    0.00027380757078391
  22    0.0056081903989548
  23     0.037288937027803
  24    -0.029020418958184
  25    -0.00021071324036248
  26    -0.014884143076163
  27    -0.013425982301492
  28    0.00018079884271843
  29    -0.009342106233801
  30     0.013130291092381
  31    0.00047612667979558
  32    -0.00039226576676249
  33    0.00014889214362802
  34    -0.0093448729051433
  35     0.012637284554488
  36    -0.00048476867317535
  37    -0.00037452201783506
  38    0.00017255833484471
  39     0.026860665436859
  40     0.023654788193353
  41    -0.00039223508076182
  42    0.00027913539583068
  43    -0.0023079264915386
  44     0.027685227973505
  45     0.024501100434294
  46    0.00037815235535899
  47    0.00030732554757812
  48    -0.002320432093009
  49    -0.001865922865494
  50    0.0015595061771967
  51     0.026968991676134
  52    2.504702138535e-05
  53    0.0045577053355823
  54    -0.014174342940537
  55    4.8054109723161e-05
  56    0.0072873254168082
  57    -0.016327489415329
  58    -0.00069865204638305
  59    1.4025129884599e-06
  60    -0.00030391109687208
  61    -0.00033496484694442
  62    6.5249493747182e-07
  63    -0.001977240424296
  64    -0.0061308226736947
  65    0.0099107799448735
  66    0.0051121798041928
  67      0.54940979628098
  68      0.37488110098611
  69    0.0036119782973059
  70      0.38696282039959
  71      0.26851011110779
  72     0.010435185194279
  73    8.3702703005889e-05
  74    0.0050868196300141
  75    0.0057255984277502
  76    -4.8836766436855e-05
 Sym= A
 Ene=               7
 Spin= Alpha
 Occup=    1.00000
   1    0.0022581348323451
   2    0.0016882890833642
   3    -0.0090743823957253
   4    -2.6661955989945e-06
   5    -0.0038569743513041
   6    -0.0045202397995389
   7    1.2913508207043e-05
   8    0.0034843778148785
   9     0.035737308031425
  10     0.029230532758545
  11    9.9228624100207e-06
  12     0.015413802933777
  13     0.013198866271038
  14    -8.5117419967666e-06
  15    0.0014824558452993
  16     0.038532791740243
  17     0.084679258153654
  18    -3.1441537472194e-06
  19      0.02697006087418
  20     0.038452238200365
  21    -1.454678953107e-05
  22     0.043349477013748
  23    0.0034205294658095
  24    -4.9186742627797e-05
  25    -4.0680490543986e-07
  26    0.0032334893663161
  27    0.0018217001107737
  28    -4.6543344309218e-07
  29    -0.028456521521823
  30    -0.024982697482812
  31     0.000457484588618
  32    0.00021656016111445
  33    -0.0024294370583624
  34    -0.028417749165272
  35    -0.024942857928361
  36    -0.00045814967953999
  37    0.00021523547142142
  38    -0.0024288480519788
  39    0.0089235936686165
  40    -0.013637404581865
  41    -0.00048222110488888
  42    -0.00026650379794698
  43    0.0002728118098038
  44    0.0089234590645253
  45    -0.013660624444829
  46    0.00048181426423148
  47    -0.00026733941757378
  48    0.00027169785564436
  49    0.0017490216533129
  50    0.0059861465343749
  51    -0.010449080127879
  52    0.00024073906302147
  53      0.54915520336548
  54      0.37558606517458
  55    0.00017008975206009
  56      0.38708269355792
  57      0.26938129343377
  58    -0.010355532927899
  59    -3.9421790262983e-06
  60    -0.0050546406464008
  61    -0.0056888935930165
  62    2.3001761506358e-06
  63    0.0018740078483809
  64    -0.0016150823601597
  65    -0.027451323210882
  66    1.0908192583133e-06
  67    0.0046308727260424
  68    -0.014600109421211
  69    2.2001805261487e-06
  70    0.0070953535252658
  71    -0.017008501912167
  72    0.00078468532070963
  73    -6.751554113467e-08
  74    0.00031236766455472
  75    0.00036240612139144
  76    -2.9792615137473e-08
 Sym= A
 Ene=               8
 Spin= Alpha
 Occup=    1.00000
   1    0.00023748030382801
   2    -0.020439967633538
   3     0.009124386706976
   4    1.1717874535294e-08
   5     0.015810151863707
   6     0.010286264676501
   7    -1.8338420865707e-08
   8    0.0054043299100529
   9    -0.0025254290530025
  10     0.010120013375848
  11    -3.8985400670907e-09
  12    0.00057314172802342
  13    0.0042581094970195
  14    3.1463829437922e-09
  15    -0.0031426816515549
  16      0.13807316955499
  17     -0.01960816454974
  18    2.9630497932093e-08
  19      0.16433956427977
  20     -0.24038454222666
  21    3.555506909967e-08
  22     0.020483784218954
  23    -0.047944114370381
  24     0.030600119905042
  25    -1.3458289030584e-08
  26    -0.046107250650127
  27    -0.017113317618096
  28    1.0895125468402e-08
  29    -0.0081522160305641
  30    -0.0050330970462863
  31    0.0001829042426008
  32    0.0015711705599663
  33    -4.3890700502437e-05
  34    -0.0081522477005084
  35    -0.0050331446577002
  36    -0.0001829056507623
  37    0.0015711732660514
  38    -4.3889355262701e-05
  39    -0.015994851463416
  40    -0.018551663268239
  41    -0.0017100870043986
  42    0.0067009263335395
  43    -0.0068375575199436
  44    -0.015994841641544
  45    -0.018551613645207
  46    0.0017100843664873
  47    0.0067009259982079
  48    -0.0068375582667141
  49    0.00034758681890468
  50    0.0044599174633821
  51    0.0099671517185989
  52    -8.1824783670512e-08
  53    0.0041882375535969
  54    -0.016252710910933
  55    -5.6983847337334e-08
  56    0.00022438553386783
  57    -0.013195540329597
  58    -0.00021563256261161
  59    1.2523206054762e-09
  60    -0.0002466832937299
  61    -3.1134182322586e-05
  62    -6.4502464200384e-10
  63    -0.0076688933466251
  64      0.22672198199405
  65      0.21122244622157
  66    3.394891188453e-07
  67     -0.25955673727579
  68      0.37915523267798
  69    2.3726261880347e-07
  70     -0.16978414012069
  71      0.24866720504683
  72     0.011038855348676
  73    5.9955867899573e-09
  74    -0.015847014647497
  75    -0.0052664813915913
  76    -3.5398567818929e-09
 Sym= A
 Ene=               9
 Spin= Alpha
 Occup=    1.00000
   1    0.0031132287050515
   2     -0.13593986408701
   3     0.021097592896924
   4    9.6151015356223e-08
   5      0.16253981430203
   6     -0.24278682747172
   7    7.7424194054527e-08
   8     0.019635643994221
   9    -0.048737017971247
  10    -0.030527488825427
  11    1.7423489809327e-08
  12     0.046295671600374
  13     0.017030828942625
  14    -1.0668368457821e-08
  15    -0.00022105894261297
  16     0.020827472171499
  17    -0.0087724599534585
  18     8.14361016278e-09
  19     0.018997122239099
  20     0.012609805669737
  21    -3.5458964992244e-08
  22    0.0067396245467505
  23    -0.0017893551562873
  24    -0.009959673671494
  25    1.5007218635596e-08
  26    -0.00033411140357017
  27    -0.0044164491818809
  28    -8.1029755292362e-09
  29     0.016079880288226
  30     0.018210367238539
  31    0.0016825231434477
  32    0.0066302179747474
  33    -0.0068923055128772
  34     0.016079811279772
  35     0.018210416450569
  36    -0.0016825290846218
  37    0.0066302221645965
  38    -0.0068923047149636
  39    0.0067070628234006
  40    0.0044210430042479
  41    -6.4747802745281e-05
  42    0.0015770852852446
  43    8.6949476218438e-06
  44    0.0067070106140208
  45     0.004420967449752
  46    6.4746587539692e-05
  47    0.0015770816889561
  48    8.6941804784595e-06
  49    0.0076756958736375
  50     -0.22683039973282
  51      -0.2115363749506
  52    4.3489821456309e-07
  53     -0.26004666539983
  54      0.37897142144822
  55    2.9943206716799e-07
  56     -0.17003584362639
  57       0.2487164257228
  58    -0.010987059914883
  59    -8.4280020695613e-09
  60     0.015849854910995
  61    0.0052834292345675
  62    5.0872385706986e-09
  63    -0.00033405093340124
  64    -0.004431027381981
  65     -0.01011268319322
  66    -3.017697382601e-07
  67    0.0040987008374155
  68    -0.016374585493464
  69    -2.1203004841313e-07
  70    -3.0194963360049e-05
  71    -0.013478197743114
  72    0.00026216433428917
  73    -4.9046024289402e-09
  74    0.00026674653196798
  75    5.2432249075517e-05
  76    2.8723015625382e-09
 Sym= A
 Ene=              10
 Spin= Alpha
 Occup=    1.00000
   1    -0.0068747242817356
   2    -0.068174348800734
   3     -0.02737134626569
   4    6.2222929138911e-07
   5     0.055554200859045
   6    -0.082398650296052
   7    -3.0017747007147e-06
   8    0.0053352280800357
   9    -0.0080940139505988
  10    -0.0034552835732413
  11    -2.306360026468e-06
  12    0.0052402680507199
  13    0.0025073664550534
  14    1.9784408798216e-06
  15    -0.00042622393469198
  16    -0.0010820413486201
  17    0.00054357182331006
  18    7.3326330546575e-07
  19    0.0073570294010553
  20    -0.0041400485799277
  21    3.3834632104829e-06
  22    0.0093180442029993
  23     0.005044108251766
  24    -0.0042204912098724
  25      9.3619538915e-08
  26    -4.6592083621863e-05
  27    -0.0017778066107011
  28    1.0900922499892e-07
  29    -0.0013356159507506
  30     0.014647329093838
  31    -7.2329762703998e-05
  32    0.0023607848029914
  33    -0.0034420991747138
  34    -0.0013446314251976
  35     0.014638066042711
  36    7.2484130414405e-05
  37    0.0023610929943991
  38    -0.003442235942504
  39    -0.0015259205427407
  40    0.0062015859388953
  41    3.1044435108276e-05
  42    0.00018429853665418
  43    -0.000423350342575
  44    -0.001525888917432
  45    0.0062069860148508
  46    -3.0950112924122e-05
  47    0.00018449268512849
  48    -0.0004230915080487
  49    0.0010397388918893
  50      0.43819886207745
  51      0.52412265913952
  52    -5.5953590369018e-05
  53     -0.18321850831494
  54      0.26343081459328
  55    -3.9533029527864e-05
  56     -0.12763076349052
  57      0.18169655269264
  58    -0.0044852127573411
  59    9.1622972070779e-07
  60    0.0067969049498384
  61    0.0022306459956543
  62    -5.3458970561464e-07
  63    -0.00047323376078317
  64    -0.0019710105563844
  65    -0.0021874614199326
  66    -2.288020103928e-07
  67    -0.00087786423245698
  68    -0.0037642978035384
  69    -4.9409466882052e-07
  70    -0.0016171187019409
  71    -0.0027683206819481
  72    0.00023628429789792
  73    1.6133006478593e-08
  74    2.2207292201133e-05
  75    -4.5522780219276e-05
  76    6.6644571206058e-09
 Sym= A
 Ene=              11
 Spin= Alpha
 Occup=    1.00000
   1    -0.00041441985425315