[Molden Format]
made by pyscf v[2.0.1]
[Atoms] (AU)
C   1   6     0.00000000000000     0.00000000000000     0.00000000000000
C   2   6     2.85207482267819     0.00000000000000     0.00000000000000
F   3   9     3.65415199667903     0.00000000000000     2.45977207315200
H   4   1     3.58561868306314    -1.67891019462705    -0.93677358840720
H   5   1     3.58561868306314     1.67891019462705    -0.93677358840720
H   6   1    -0.73354386038494     1.67891019462705    -0.93677358840720
F   7   9    -0.80207717400084     0.00000000000000     2.45977207315200
H   8   1    -0.73354386038494    -1.67891019462705    -0.93677358840720
[GTO]
1 0
 s    8 1.00
                  6665  0.00069158396281299
                  1000  0.0053257961529341
                   228   0.027060721042034
                 64.71    0.10165684614077
                 21.06     0.2745748236174
                 7.495    0.44829431892377
                 2.797    0.28490261071525
                0.5215   0.015194859206082
 s    8 1.00
                  6665  -0.00029326965268655
                  1000  -0.0023180354739745
                   228  -0.011499786038565
                 64.71  -0.046826727009787
                 21.06   -0.12846616875047
                 7.495   -0.30126627246289
                 2.797   -0.25563070233011
                0.5215      1.093793361012
 s    1 1.00
                0.1596                   1
 p    3 1.00
                 9.439   0.056979251590039
                 2.002    0.31320721150073
                0.5456    0.76037674173753
 p    1 1.00
                0.1517                   1
 d    1 1.00
                  0.55                   1

2 0
 s    8 1.00
                  6665  0.00069158396281299
                  1000  0.0053257961529341
                   228   0.027060721042034
                 64.71    0.10165684614077
                 21.06     0.2745748236174
                 7.495    0.44829431892377
                 2.797    0.28490261071525
                0.5215   0.015194859206082
 s    8 1.00
                  6665  -0.00029326965268655
                  1000  -0.0023180354739745
                   228  -0.011499786038565
                 64.71  -0.046826727009787
                 21.06   -0.12846616875047
                 7.495   -0.30126627246289
                 2.797   -0.25563070233011
                0.5215      1.093793361012
 s    1 1.00
                0.1596                   1
 p    3 1.00
                 9.439   0.056979251590039
                 2.002    0.31320721150073
                0.5456    0.76037674173753
 p    1 1.00
                0.1517                   1
 d    1 1.00
                  0.55                   1

3 0
 s    8 1.00
                 14710  0.00072067370873197
                  2207  0.0055504869689163
                 502.8   0.028254207662589
                 142.6    0.10639582836653
                 46.47    0.28668420124307
                  16.7    0.44843796582416
                 6.356    0.26464118141135
                 1.316   0.015326060993048
 s    8 1.00
                 14710  -0.00032119389049893
                  2207  -0.0025461915683188
                 502.8  -0.012643359507821
                 142.6   -0.05195749170489
                 46.47   -0.14344713812646
                  16.7   -0.33243762329603
                 6.356   -0.21865906750347
                 1.316     1.0955904138622
 s    1 1.00
                0.3897                   1
 p    3 1.00
                 22.67   0.064834021493887
                 4.977    0.34053535983101
                 1.347    0.73464640679382
 p    1 1.00
                0.3471                   1
 d    1 1.00
                  1.64                   1

4 0
 s    3 1.00
                 13.01   0.033498726389998
                 1.962    0.23480080117413
                0.4446     0.8136829578829
 s    1 1.00
                 0.122                   1
 p    1 1.00
                 0.727                   1

5 0
 s    3 1.00
                 13.01   0.033498726389998
                 1.962    0.23480080117413
                0.4446     0.8136829578829
 s    1 1.00
                 0.122                   1
 p    1 1.00
                 0.727                   1

6 0
 s    3 1.00
                 13.01   0.033498726389998
                 1.962    0.23480080117413
                0.4446     0.8136829578829
 s    1 1.00
                 0.122                   1
 p    1 1.00
                 0.727                   1

7 0
 s    8 1.00
                 14710  0.00072067370873197
                  2207  0.0055504869689163
                 502.8   0.028254207662589
                 142.6    0.10639582836653
                 46.47    0.28668420124307
                  16.7    0.44843796582416
                 6.356    0.26464118141135
                 1.316   0.015326060993048
 s    8 1.00
                 14710  -0.00032119389049893
                  2207  -0.0025461915683188
                 502.8  -0.012643359507821
                 142.6   -0.05195749170489
                 46.47   -0.14344713812646
                  16.7   -0.33243762329603
                 6.356   -0.21865906750347
                 1.316     1.0955904138622
 s    1 1.00
                0.3897                   1
 p    3 1.00
                 22.67   0.064834021493887
                 4.977    0.34053535983101
                 1.347    0.73464640679382
 p    1 1.00
                0.3471                   1
 d    1 1.00
                  1.64                   1

8 0
 s    3 1.00
                 13.01   0.033498726389998
                 1.962    0.23480080117413
                0.4446     0.8136829578829
 s    1 1.00
                 0.122                   1
 p    1 1.00
                 0.727                   1

[5d]
[7f]
[9g]

[MO]
 Sym= A
 Ene=               0
 Spin= Alpha
 Occup=    1.00000
   1    -0.00034697430471348
   2    -0.0050195815417008
   3    -0.00044703301489386
   4    -0.0095953001043467
   5    -1.3423118348733e-10
   6    -0.00023875064226014
   7    -0.0022718463008327
   8    -1.4436894660025e-10
   9    -0.00064271201363143
  10    0.0008869906381773
  11    3.3551398174078e-05
  12    -2.300425781954e-11
  13    -0.0013202514054642
  14    1.1089686271221e-10
  15       1.0012885756485
  16    -0.017730042670834
  17    -0.020440911524595
  18    0.0019636009227879
  19    2.3866462384839e-09
  20    0.0036994668834172
  21    0.0018832398435914
  22    1.3585887771655e-09
  23    0.0030753242880891
  24    -2.0239958302281e-05
  25    -0.00020281390416701
  26    4.3474894727078e-10
  27    -0.00050118371237135
  28    2.1755738279615e-10
  29    4.5708332031459e-05
  30    -0.0017544592868953
  31    -0.00094806852619023
  32    0.0023908389834138
  33    1.0012535532261e-08
  34    0.0070461397246241
  35    0.0013988766167453
  36      6.9159666486e-09
  37    0.0050793816441726
  38    -0.00069193580725075
  39    -0.00041126009143463
  40    -2.2094492565514e-10
  41     -5.8897006628e-05
  42    -7.0568383192385e-11
  43    -0.010975439558538
  44    0.00020025464699151
  45    0.00054524983613577
  46    -0.0014135686121626
  47    -0.00081007592917637
  48    -0.010975437567026
  49    0.00020025444226798
  50    0.0005452496998741
  51      0.00141356845287
  52    -0.00081007585173323
  53    0.00078552886681455
  54    0.00099025305337318
  55    -0.00014202581923007
  56    -1.5861005868343e-05
  57    -8.2423836551314e-06
  58    -5.6860994609103e-05
  59    0.00024863719215989
  60    0.00083915382617233
  61    0.0013045996034514
  62    -7.8538175960033e-10
  63    -0.00023107892760957
  64    0.0018447404769992
  65    -5.0400730760862e-10
  66    -9.0682043109792e-05
  67    -5.1555811134955e-06
  68    8.237556321824e-05
  69    1.6975221116243e-11
  70    -2.1633022120461e-06
  71    5.600667684444e-12
  72    0.00078552919778089
  73    0.00099025336875133
  74    -0.00014202576713834
  75    1.5861012664026e-05
  76    -8.2423806354862e-06
 Sym= A
 Ene=               1
 Spin= Alpha
 Occup=    1.00000
   1       1.0012885756861
   2    -0.017730041392544
   3    -0.020440910327373
   4    -0.0019636046265466
   5    2.3529212163062e-10
   6     0.003699467280011
   7    -0.001883239502611
   8    1.881244316769e-10
   9    0.0030753234497228
  10    -2.0238966766292e-05
  11    0.00020281475716611
  12    6.9720795015985e-11
  13    -0.00050118445374754
  14    -5.5859716802496e-11
  15    -0.00034697546059189
  16    -0.0050195852463598
  17    -0.00044703733760761
  18    0.0095953039198942
  19    -7.5970167412559e-10
  20    -0.00023875110318147
  21    0.0022718492776725
  22    -5.0817425854486e-10
  23    -0.00064271128396352
  24    0.00088699053317634
  25    -3.3551284914398e-05
  26    -2.1300260310024e-10
  27    -0.0013202515066643
  28    -9.3196769268302e-11
  29    -5.6869246989479e-05
  30    0.00024863500683497
  31    0.00083915149468318
  32    -0.0013045961633511
  33    -4.5940523157853e-09
  34    -0.00023107939124855
  35    -0.0018447385562767
  36    -3.1885161607201e-09
  37    -9.0682291518996e-05
  38    -5.1556394360587e-06
  39    -8.2375723676067e-05
  40    9.6226724099121e-11
  41    -2.163279735807e-06
  42    2.9881981842501e-11
  43    0.00078552883672196
  44    0.00099025356425308
  45    0.00014202592870526
  46    1.5860997135751e-05
  47    -8.2424917141421e-06
  48    0.00078552839708339
  49    0.00099025382923513
  50    0.00014202597657477
  51    -1.5860942220629e-05
  52    -8.2425102173762e-06
  53     -0.01097543590027
  54    0.0002002558937945
  55    -0.00054524982851299
  56    0.0014135683630559
  57    -0.00081007574431387
  58    4.568534322265e-05
  59    -0.001754456947447
  60    -0.0009480654997788
  61    -0.0023908170758352
  62    1.6019991296851e-09
  63    0.0070461442129315
  64    -0.0013988609785339
  65    1.0949234887046e-09
  66    0.0050793847776604
  67    -0.00069193587509375
  68    0.00041125969644883
  69    -3.3160467726159e-11
  70    -5.889690924642e-05
  71    6.0430752781941e-12
  72    -0.010975436078557
  73    0.0002002559003912
  74    -0.0005452498618665
  75    -0.001413568380942
  76    -0.00081007574956101
 Sym= A
 Ene=               2
 Spin= Alpha
 Occup=    1.00000
   1    7.0572917911706e-05
   2    6.9208463875896e-05
   3    -0.0033955645309837
   4    -0.00010037549112486
   5    2.5634793705999e-08
   6    0.0001380667236173
   7    -0.0016725863928966
   8    1.8011439299903e-07
   9    4.0474834626513e-06
  10    0.00021678006167861
  11    -0.00012691174583134
  12    -4.2049792021214e-08
  13    -3.0322457008193e-05
  14    2.3134138128377e-08
  15    6.4355986072215e-05
  16    -0.0016461331146437
  17    0.0055157828167732
  18    -0.0015394109559976
  19    -1.0490312150685e-06
  20    -0.0035049812476719
  21    -0.001668813067578
  22    -2.0221096350964e-06
  23    8.0015947136792e-05
  24    -0.0010896151106733
  25    -0.0012817669531012
  26    -1.7830143948607e-06
  27    -0.00035774468340021
  28    -4.5725794791917e-07
  29       0.9985441086926
  30     -0.03494762339002
  31    -0.045331661889803
  32     -0.01205816213489
  33    -3.3619972502847e-05
  34    -0.00071716178030623
  35    -0.0080231790717771
  36    -2.3675145655214e-05
  37    0.00094397332784099
  38    -0.00046686622972661
  39    -4.0493447399426e-05
  40    6.3482666914993e-07
  41    3.5307022333597e-05
  42    2.1447432882153e-07
  43    0.00022377684876759
  44    -8.6767833553845e-05
  45    7.5707697978535e-05
  46    -0.0001401202568004
  47    -0.00027022255422753
  48    0.00022733077161005
  49    -8.1914209819877e-05
  50    7.5731325877683e-05
  51    0.00014027151379471
  52    -0.00027012563859746
  53    0.00010174131855339
  54    4.9997445214172e-05
  55    2.3861261291439e-05
  56    -8.1320368819323e-06
  57    7.4903975118824e-05
  58    -4.022150614175e-05
  59    -3.761194984537e-05
  60    0.00022768516927501
  61    0.00016045477705919
  62    2.8112127129133e-07
  63    5.8390465302587e-05
  64    0.00024227803713943
  65    1.0123218423045e-08
  66    -4.2879875219052e-05
  67    -1.3510127373134e-05
  68    -1.8626636250182e-06
  69    -4.0503218039692e-09
  70    -1.0170484672543e-05
  71    -3.1022547099844e-08
  72    0.00010172296235825
  73    4.987221726028e-05
  74    2.3700382137408e-05
  75    8.1027275840699e-06
  76    7.4894073542952e-05
 Sym= A
 Ene=               3
 Spin= Alpha
 Occup=    1.00000
   1    6.4402193569831e-05
   2    -0.0016461521464826
   3    0.0055155925095267
   4    0.0015393920467161
   5    2.1179287970062e-07
   6    -0.0035051415764884
   7    0.0016683557988694
   8    4.0767883265436e-07
   9    8.0109925172629e-05
  10    -0.0010898512052085
  11    0.0012815175097818
  12    3.5928655959624e-07
  13    -0.0003576163771231
  14    -9.2156484249098e-08
  15    7.058869362019e-05
  16    6.9498067931122e-05
  17    -0.0033947988877879
  18    9.9908670493534e-05
  19    -5.4268938159207e-09
  20    0.00013813806644062
  21    0.0016720397301464
  22    -3.6777921049586e-08
  23    3.8972621390062e-06
  24    0.00021677584253949
  25    0.0001268958972679
  26    8.0563472703969e-09
  27    -3.0316274461462e-05
  28    4.5349291847661e-09
  29    -4.0201432143014e-05
  30    -3.7497828007668e-05
  31    0.00022781688804902
  32    -0.00016058691247242
  33    -6.4527200385665e-08
  34    5.8358167725739e-05
  35    -0.00024228554652639
  36    -7.5874835494594e-09
  37    -4.2954327286824e-05
  38    -1.3494452992237e-05
  39    1.8787194616861e-06
  40    9.6533453403591e-10
  41    -1.0186315928114e-05
  42    -6.2016129752631e-09
  43    0.00010167179961136
  44    4.9838403814503e-05
  45    -2.3817120467841e-05
  46    8.1084890409497e-06
  47    7.491356321384e-05
  48    0.00010166886488587
  49    4.9814236738967e-05
  50    -2.3784694040537e-05
  51    -8.1025483612789e-06
  52    7.4911590372926e-05
  53    0.00022497257229501
  54    -8.5099810741394e-05
  55    -7.5701357154223e-05
  56    0.00014018381558097
  57    -0.0002701995883698
  58      0.99854401459414
  59    -0.034949577041502
  60    -0.045334003799567
  61     0.012052101491727
  62    6.7751820819561e-06
  63    -0.00071944913145419
  64    0.0080189230208327
  65    4.7710069994764e-06
  66    0.00094238468236981
  67    -0.00046680889266655
  68    4.0604357492489e-05
  69    -1.2793751464601e-07
  70    3.5273391046654e-05
  71    4.3215097529642e-08
  72    0.00022568819033325
  73    -8.412196436897e-05
  74    -7.5706179750887e-05
  75    -0.00014021432499322
  76    -0.00027018007992138
 Sym= A
 Ene=               4
 Spin= Alpha
 Occup=    1.00000
   1    -1.8929735144553e-07
   2    -5.0749926934964e-07
   3    2.2317507797383e-06
   4    2.0852121198776e-06
   5     0.020824692226978
   6    -1.2104202408904e-07
   7    4.2176914980698e-06
   8     0.040068060232743
   9    -9.9147506152618e-07
  10    1.1485932943811e-06
  11    2.2007032785212e-06
  12     0.035313083221733
  13    -9.1716848188011e-07
  14    -0.0090578935780426
  15    -6.7884062039177e-08
  16    -1.3911943016137e-06
  17    -5.6968560721592e-06
  18    2.2293011251794e-06
  19    -0.00049826023632957
  20    -1.7402168660392e-07
  21    3.8022243442736e-06
  22    -0.0035653386657609
  23    1.2446070582869e-06
  24    6.1696482417093e-08
  25    1.6330932183464e-07
  26    0.00083112666771133
  27    1.5393197874912e-08
  28    0.00045590948634707
  29    -8.5352502121094e-08
  30    -7.5720377276509e-07
  31    -1.0076907715612e-06
  32    1.1088805925298e-06
  33    -0.0055905598124932
  34    -8.4416323233123e-08
  35    2.661575402605e-07
  36    -0.00021732286047391
  37    3.1054365859937e-07
  38    -1.0295163635571e-07
  39    -9.4655388953622e-08
  40    8.0512408409391e-05
  41    1.1379672471634e-07
  42    -0.00061436872866432
  43    0.00017621352072117
  44    0.0012397510151811
  45    -0.0015927783729156
  46    0.00028998381892007
  47    9.765104818628e-05
  48    -0.00017566142110025
  49    -0.0012385368538829
  50    0.0015930130168177
  51    0.00028982573110386
  52    -9.7804045666654e-05
  53    -0.035160378869795
  54    -0.048051884160829
  55    0.00023536058817476
  56    -0.0014991975176837
  57    -0.00095850484341917
  58    -1.1379819606799e-05
  59    9.4148805454956e-07
  60    2.1293508248875e-06
  61    4.5694662218051e-05
  62      0.66589439342265
  63    1.6418846664176e-05
  64    3.2066309647253e-05
  65      0.46891888299574
  66    1.1134118645297e-05
  67    -5.209555115153e-07
  68    -7.9352795212251e-07
  69    -0.012574419431391
  70    2.5075849841107e-07
  71    0.0042481411414417
  72     0.035162752596296
  73     0.048055225905456
  74    -0.00023560389444964
  75    -0.0014993380495641
  76    0.00095862305124943
 Sym= A
 Ene=               5
 Spin= Alpha
 Occup=    1.00000
   1    -1.4482929514683e-06
   2    -3.2192344068377e-05
   3    -0.00013149651504213
   4    -5.2367822521612e-05
   5    -0.00049825960631604
   6    -3.5097124065073e-06
   7    -8.8226192496469e-05
   8    -0.0035653338066508
   9    2.9030853751452e-05
  10    9.5303781695667e-07
  11    -2.8875976074035e-06
  12    0.00083112532020621
  13    5.7228294180781e-07
  14    -0.00045590875562826
  15    -2.6002901919574e-06
  16    1.3381377402927e-06
  17    5.388091313709e-05
  18    -4.1886184640232e-05
  19     0.020824663611233
  20    1.7502056928593e-05
  21    -9.5485227620076e-05
  22     0.040068003850581
  23    -1.9246931294964e-05
  24    2.9461751689013e-05
  25    -4.9209630679274e-05
  26     0.035313033198801
  27    -2.0837590392853e-05
  28    0.0090578807863711
  29    2.1496863387185e-05
  30    5.9981665417038e-06
  31    2.5103320525247e-05
  32    -0.0010699796750502
  33      0.66589345098965
  34    0.00033764481702755
  35    -0.00075031802452971
  36      0.46891821926779
  37    0.00022998901529382
  38    -1.0716556545498e-05
  39    1.9119356852256e-05
  40    -0.012574401647971
  41    5.9239228752118e-06
  42    -0.0042481351290728
  43     0.035188949984489
  44      0.04809002672577
  45    0.00023839174280249
  46    -0.0015007410783832
  47    0.00096065502836441
  48    -0.035134080699599
  49    -0.048016946805285
  50    -0.00023257214050146
  51    -0.0014977902949717
  52    -0.00095647010812453
  53    -0.00016917504367033
  54    -0.0012243863110019
  55    -0.0015957046786181
  56    0.00028811600011749
  57    -9.9576221616267e-05
  58    -1.9933039043294e-06
  59    -1.8096329225336e-05
  60    -2.4414921593543e-05
  61    -2.6661727164675e-05
  62    -0.0055905550827681
  63    -1.3073491871441e-06
  64    -7.2402274948262e-06
  65    -0.00021732480128501
  66    7.3811091033671e-06
  67    -2.35602573827e-06
  68    2.1928284884207e-06
  69    8.0512354561208e-05
  70    2.6310248378871e-06
  71    0.00061436783941593
  72    0.00018269913001723
  73     0.001253897707893
  74    0.0015900822018524
  75    0.00029169273779854
  76    9.5878583844173e-05
 Sym= A
 Ene=               6
 Spin= Alpha
 Occup=    1.00000
   1    0.00086442700682539
   2     0.019030616885314
   3     0.078157162670996
   4      0.03088238571853
   5    -8.4474449066315e-07
   6    0.0021151574286289
   7     0.052355839593511
   8    -6.0005108641721e-06
   9    -0.017229311629546
  10    -0.00061816782437626
  11    0.0018063048128259
  12    1.4015023662459e-06
  13    -0.00031984775192686
  14    -7.7784489225339e-07
  15    0.0017072376737452
  16    0.00063266197441214
  17    -0.031956623170494
  18      0.02573317262281
  19    3.4848283113776e-05
  20    -0.0080595900514861
  21     0.057002614692796
  22    6.7367885686481e-05
  23     0.011878621073355
  24    -0.017067081520046
  25     0.029463969202298
  26    5.944776101901e-05
  27     0.012415705544559
  28    1.5238954384957e-05
  29     0.017605805873157
  30    -0.0015314896668732
  31    -0.013236316493307
  32      0.63415994105343
  33    0.0011208214710568
  34     -0.20427867992003
  35      0.44476707141228
  36    0.00078928899418734
  37     -0.13896771284465
  38    0.0065111168806497
  39    -0.011267428459459
  40    -2.1161915380103e-05
  41    -0.0035042379724141
  42    -7.1496960555216e-06
  43    -0.016200023155027
  44    -0.021763800842582
  45    -0.0017217198953759
  46    0.00090404037039656
  47    -0.0011583455841786
  48    -0.016318686857591
  49    -0.021925685480808
  50    -0.0017225000703735
  51    -0.0009090761796817
  52    -0.0011615829051787
  53    -0.0039668293459358
  54    -0.0086753486830821
  55    0.0016530870402912
  56    0.0010652969938443
  57    0.0010861198562345
  58    0.0011875067153857
  59      0.01068162443953
  60     0.014397707771177
  61     0.015760298205192
  62    -9.3735825341274e-06
  63    0.00084397480809484
  64    0.0042279251541932
  65    -3.3841462088544e-07
  66    -0.0043515446610083
  67    0.0014000531641238
  68    -0.0012992843013607
  69    1.3485220571612e-07
  70    -0.0015599232654703
  71    1.034181069273e-06
  72    -0.0039662468377566
  73    -0.0086711989466281
  74    0.0016584499811066
  75    -0.0010643197702425
  76    0.0010864496379554
 Sym= A
 Ene=               7
 Spin= Alpha
 Occup=    1.00000
   1    -0.0017072938661688
   2    -0.0006328639965256
   3     0.031956691244001
   4     0.025733409522852
   5    -1.4930908966622e-06
   6    0.0080593663454475
   7     0.057002771781681
   8    -2.9158776464807e-06
   9    -0.011878656813331
  10     0.017067053918372
  11     0.029464043254739
  12    -2.5794752903964e-06
  13    -0.012415722739759
  14    6.6025233448309e-07
  15    -0.00086442869651661
  16    -0.019030604650933
  17     -0.07815727366845
  18     0.030882335274886
  19    3.7897671782937e-08
  20    -0.0021151824545893
  21     0.052355890320657
  22    2.6398125628436e-07
  23     0.017229324084109
  24    0.00061817078101536
  25    0.0018063106854217
  26    -5.7162051142051e-08
  27    0.00031984709008194
  28    -3.3781255309111e-08
  29    -0.0011875699331166
  30    -0.010681724370125
  31    -0.014397814615752
  32     0.015760241496417
  33    4.7485573383711e-07
  34    -0.00084393781485192
  35    0.0042278763800688
  36    6.2676524355012e-08
  37    0.0043515759475939
  38    -0.0014000576612138
  39    -0.0012992843948978
  40    -7.116713259038e-09
  41     0.001559925832845
  42    4.4417214288262e-08
  43    0.0039665340776217
  44    0.0086731886732043
  45    0.0016558838102743
  46    0.0010647886605727
  47    -0.0010862912654403
  48    0.0039665486399292
  49    0.0086733554609439
  50    0.0016556511596244
  51    -0.0010648314064929
  52    -0.001086277172522
  53     0.016261899863524
  54     0.021848288855741
  55    -0.0017221286742834
  56    0.00090667783935857
  57    0.0011600231509922
  58    -0.017596066967779
  59    0.0015311628515641
  60     0.013235955222205
  61      0.63416079544075
  62    -4.8619242465168e-05
  63      0.20427941802414
  64      0.44476766374319
  65    -3.4238746456385e-05
  66      0.13896821828794
  67    -0.0065111484289636
  68    -0.011267435195365
  69    9.1767754338516e-07
  70    0.0035042423165412
  71    -3.1000826006387e-07
  72     0.016256725203576
  73     0.021841255837487
  74    -0.0017220956344611
  75    -0.00090646035769205
  76    0.0011598817919902
 Sym= A
 Ene=               8
 Spin= Alpha
 Occup=    1.00000
   1    -0.019064236977824
   2     -0.16228939810108
   3    0.0059560120091463
   4      0.08778557079017
   5    -3.9091658160895e-08
   6     -0.26232048842971
   7     0.031473138810299
   8    -7.4641162123007e-08
   9    -0.046918249291192
  10    -0.048057155155395
  11     0.027404942010483
  12    -6.6032347557576e-08
  13    -0.0054033442438956
  14    1.6918731479821e-08
  15    -0.00041281458699647
  16    0.0060286188345097
  17    -0.015133765186164
  18     -0.01623151479008
  19    -1.7899358085189e-09
  20    -0.0052549903791197
  21     0.001306327658289
  22    2.9851608488155e-09
  23    -0.0028227764902717
  24    0.0061771988173893
  25     0.010441105662599
  26    -4.4282987035555e-09
  27    -0.0027316502743322
  28    -1.6267046507755e-09
  29    -8.7450092857316e-05
  30    0.0045915724864789
  31    0.0099709572973585
  32    -0.0051024900178762
  33    -4.4648606109199e-08
  34    -0.007947074413241
  35    -0.006833678243687
  36    -3.8325661466722e-08
  37    -0.0041691743605289
  38    -9.7076918761776e-05
  39    0.00013744121459755
  40    9.0516881474562e-10
  41    -0.00038518962411253
  42    1.5030133088715e-09
  43    -0.0039798515076173
  44    -0.0090661046717104
  45    -0.0014792476089534
  46    0.00037174810537217
  47    0.0014375219317068
  48    -0.0039798464661525
  49    -0.0090660926429946
  50    -0.0014792534610863
  51    -0.00037174888440752
  52    0.0014375224040117
  53    -0.0022416885086529
  54     0.016829626667737
  55    0.00047828725761437
  56    0.0033605714061133
  57    -0.0098228087124909
  58    -0.034388264121149
  59     -0.24860178419407
  60     -0.23140901483845
  61     -0.13247406457066
  62    -1.2436285300119e-06
  63      0.41338958666709
  64    -0.086979702969889
  65    -8.7604273084692e-07
  66      0.26817058976236
  67     -0.01704091422565
  68     0.010084947504476
  69    2.3489172835125e-08
  70    -0.0015845733790169
  71    -7.9890340670401e-09
  72    -0.0022418197100475
  73     0.016829446885935
  74     0.000478287888948
  75    -0.0033605658342464
  76    -0.0098228122972781
 Sym= A
 Ene=               9
 Spin= Alpha
 Occup=    1.00000
   1    -0.00041281618366862
   2    0.0060286319669371
   3    -0.015133827432177
   4     0.016231494163499
   5    -9.5262168920191e-09
   6    -0.005254986119079
   7    -0.0013063772812455
   8    -5.9641885849241e-08
   9    -0.0028227606929261
  10    0.0061771994032315
  11    -0.010441112703623
  12    1.4616557189662e-08
  13    -0.0027316467312118
  14    -7.3616248421965e-09
  15    -0.019064240721528
  16     -0.16228937017114
  17    0.0059560764116435
  18    -0.087785604354463
  19    3.566221606513e-07
  20     -0.26232049087936
  21    -0.031473196777444
  22    6.7423935135894e-07
  23    -0.046918263516079
  24    -0.048057145254818
  25    -0.027404968107868
  26    5.9150761264639e-07
  27    -0.0054033534338941
  28    1.521758119674e-07
  29    -0.034386319412828
  30     -0.24860188432682
  31     -0.23140913324138
  32      0.13247353473166
  33    1.1160155689685e-05
  34      0.41338972490939
  35     0.086979333929574
  36    7.8585084542767e-06
  37      0.26817068644412
  38    -0.017040919360817
  39     -0.01008493812547
  40    -2.1086094511092e-07
  41    -0.0015845706375085
  42    -7.1235310078567e-08
  43    -0.0022411450781296
  44     0.016830355971359
  45    -0.00047828276380339
  46    -0.0033605937008922
  47    -0.0098227933759782
  48    -0.0022423123549976
  49     0.016828749911759
  50    -0.00047829106106361
  51    0.0033605430451657
  52    -0.0098228251225194
  53    -0.0039798440713083
  54    -0.0090661164879719
  55    0.0014792234508732
  56    -0.00037174589150572
  57    0.0014375204536719
  58    -8.7354786598851e-05
  59    0.0045916179726689
  60    0.0099710026785815
  61    0.0051023983209575
  62    -8.1863881158766e-08
  63    -0.0079471082015977
  64    0.0068336178834898
  65    4.7388114660686e-09
  66    -0.0041691920015589
  67    -9.7076325803207e-05
  68    -0.00013743940425299
  69    1.1530180787012e-09
  70    -0.00038518878381532
  71    1.0371114228866e-08
  72    -0.0039798337569811
  73    -0.0090660711679634
  74    0.0014792769199068
  75    0.00037175560098963
  76    0.0014375238307053
 Sym= A
 Ene=              10
 Spin= Alpha
 Occup=    1.00000
   1    -0.011247797940547
   2    -0.075120140698924
   3    -0.021240846720401
   4     0.038229349256609
   5    -4.590853672114e-08
   6     -0.11333794482755
   7     0.011788911307346
   8    -8.8712081116522e-08
   9    -0.015805449904131
  10    -0.0088930300376209
  11    0.0050956055036885
  12    -7.8053979601133e-08
  13    -0.0010578846571623
  14    1.9979712277372e-08
  15    -0.001272452092153
  16    -0.00056698714807389
  17    0.0048498403897761
  18    -0.0071207041520813
  19    1.6761662181492e-09
  20    -0.0046220628382879
  21    -0.0051819804626303
  22    9.6624317909355e-09
  23    -0.0034917921439415
  24    0.0020787807251193
  25    0.0064607945924191
  26    -1.1205189083372e-10
  27    -0.00042677824600379
  28    -5.9475359130678e-10
  29    -0.00062177420916564
  30    -4.9323147639913e-06
  31    0.0046651672570872
  32    0.0010524067467799
  33    4.4536352222221e-08
  34    -0.0072598118899635
  35    -0.0022802000688417
  36    2.3163663432456e-08
  37    -0.0027093030777706
  38    -0.00024507597223186
  39    -0.00020335855306464
  40    -7.7888731667792e-10
  41    0.00018727916009581
  42    1.1547379526894e-09
  43    -0.0034250531120848
  44    -0.0056770033836894
  45    -0.00075921324109394
  46    0.00030375306683861
  47    0.00039898489570314
  48    -0.0034250563836217
  49    -0.0056770028266414
  50    -0.00075922028250976
  51    -0.00030375447092436
  52    0.00039898521341714
  53    1.2678146129139e-06
  54      0.01789704294357
  55    0.0013335651511739
  56    -0.00013520598321017
  57    -0.0044726477518253
  58     0.058264907112085
  59      0.42458909396931
  60      0.51263080626908
  61     -0.10668462363496
  62    -1.4727510020376e-06
  63      0.32805018287997
  64    -0.074568638193026
  65    -1.0369304557952e-06
  66      0.22459460192663
  67    -0.0083789862507196
  68    0.0046614661531322
  69    2.7806766597563e-08
  70    -0.00079425390241544
  71    -9.3638198298694e-09
  72    1.1120346512497e-06
  73     0.017896830380085
  74    0.0013335663370746
  75    0.00013521263501829
  76    -0.0044726519894563
 Sym= A
 Ene=              11
 Spin= Alpha
 Occup=    1.00000
   1    -0.0012724514453672
   2    -0.00056701007752973