[Molden Format]
made by pyscf v[2.0.1]
[Atoms] (AU)
C   1   6     0.00000000000000     0.88125373745639     1.12114894133204
C   2   6     0.00000000000000    -0.88125373745639    -1.12114894133204
H   3   1     1.67890143805590     2.07106861498177     1.11893447692235
H   4   1    -1.67890143805590     2.07106861498177     1.11893447692235
H   5   1     1.67890143805590    -2.07106861498177    -1.11893447692235
H   6   1    -1.67890143805590    -2.07106861498177    -1.11893447692235
F   7   9     0.00000000000000    -0.55695585395221     3.27181400232624
F   8   9     0.00000000000000     0.55695585395221    -3.27181400232624
[GTO]
1 0
 s    8 1.00
                  6665  0.00069158396281299
                  1000  0.0053257961529341
                   228   0.027060721042034
                 64.71    0.10165684614077
                 21.06     0.2745748236174
                 7.495    0.44829431892377
                 2.797    0.28490261071525
                0.5215   0.015194859206082
 s    8 1.00
                  6665  -0.00029326965268655
                  1000  -0.0023180354739745
                   228  -0.011499786038565
                 64.71  -0.046826727009787
                 21.06   -0.12846616875047
                 7.495   -0.30126627246289
                 2.797   -0.25563070233011
                0.5215      1.093793361012
 s    1 1.00
                0.1596                   1
 p    3 1.00
                 9.439   0.056979251590039
                 2.002    0.31320721150073
                0.5456    0.76037674173753
 p    1 1.00
                0.1517                   1
 d    1 1.00
                  0.55                   1

2 0
 s    8 1.00
                  6665  0.00069158396281299
                  1000  0.0053257961529341
                   228   0.027060721042034
                 64.71    0.10165684614077
                 21.06     0.2745748236174
                 7.495    0.44829431892377
                 2.797    0.28490261071525
                0.5215   0.015194859206082
 s    8 1.00
                  6665  -0.00029326965268655
                  1000  -0.0023180354739745
                   228  -0.011499786038565
                 64.71  -0.046826727009787
                 21.06   -0.12846616875047
                 7.495   -0.30126627246289
                 2.797   -0.25563070233011
                0.5215      1.093793361012
 s    1 1.00
                0.1596                   1
 p    3 1.00
                 9.439   0.056979251590039
                 2.002    0.31320721150073
                0.5456    0.76037674173753
 p    1 1.00
                0.1517                   1
 d    1 1.00
                  0.55                   1

3 0
 s    3 1.00
                 13.01   0.033498726389998
                 1.962    0.23480080117413
                0.4446     0.8136829578829
 s    1 1.00
                 0.122                   1
 p    1 1.00
                 0.727                   1

4 0
 s    3 1.00
                 13.01   0.033498726389998
                 1.962    0.23480080117413
                0.4446     0.8136829578829
 s    1 1.00
                 0.122                   1
 p    1 1.00
                 0.727                   1

5 0
 s    3 1.00
                 13.01   0.033498726389998
                 1.962    0.23480080117413
                0.4446     0.8136829578829
 s    1 1.00
                 0.122                   1
 p    1 1.00
                 0.727                   1

6 0
 s    3 1.00
                 13.01   0.033498726389998
                 1.962    0.23480080117413
                0.4446     0.8136829578829
 s    1 1.00
                 0.122                   1
 p    1 1.00
                 0.727                   1

7 0
 s    8 1.00
                 14710  0.00072067370873197
                  2207  0.0055504869689163
                 502.8   0.028254207662589
                 142.6    0.10639582836653
                 46.47    0.28668420124307
                  16.7    0.44843796582416
                 6.356    0.26464118141135
                 1.316   0.015326060993048
 s    8 1.00
                 14710  -0.00032119389049893
                  2207  -0.0025461915683188
                 502.8  -0.012643359507821
                 142.6   -0.05195749170489
                 46.47   -0.14344713812646
                  16.7   -0.33243762329603
                 6.356   -0.21865906750347
                 1.316     1.0955904138622
 s    1 1.00
                0.3897                   1
 p    3 1.00
                 22.67   0.064834021493887
                 4.977    0.34053535983101
                 1.347    0.73464640679382
 p    1 1.00
                0.3471                   1
 d    1 1.00
                  1.64                   1

8 0
 s    8 1.00
                 14710  0.00072067370873197
                  2207  0.0055504869689163
                 502.8   0.028254207662589
                 142.6    0.10639582836653
                 46.47    0.28668420124307
                  16.7    0.44843796582416
                 6.356    0.26464118141135
                 1.316   0.015326060993048
 s    8 1.00
                 14710  -0.00032119389049893
                  2207  -0.0025461915683188
                 502.8  -0.012643359507821
                 142.6   -0.05195749170489
                 46.47   -0.14344713812646
                  16.7   -0.33243762329603
                 6.356   -0.21865906750347
                 1.316     1.0955904138622
 s    1 1.00
                0.3897                   1
 p    3 1.00
                 22.67   0.064834021493887
                 4.977    0.34053535983101
                 1.347    0.73464640679382
 p    1 1.00
                0.3471                   1
 d    1 1.00
                  1.64                   1

[5d]
[7f]
[9g]

[MO]
 Sym= A
 Ene=               0
 Spin= Alpha
 Occup=    1.00000
   1    -9.1380729846839e-05
   2    -9.7590734995556e-05
   3     0.002813970841221
   4    -1.1795651099567e-16
   5    -0.0001723603540354
   6    0.00019127324147001
   7    -6.5076877472425e-17
   8    -0.00097547191338475
   9    0.00010355451036118
  10    8.604526121965e-05
  11    4.807451268606e-18
  12    1.0165449328928e-05
  13    -8.6894298247841e-07
  14    9.3705879391497e-18
  15    9.1380729579933e-05
  16    9.7590734634459e-05
  17    -0.0028139708346603
  18    6.2991781593807e-18
  19    -0.00017236035363369
  20    0.00019127324003056
  21    3.8736629830382e-17
  22    -0.00097547191058545
  23    0.00010355450630816
  24    -8.6045261134267e-05
  25    3.4014409684781e-18
  26    -1.0165449796943e-05
  27    8.6894284553542e-07
  28    -6.344335322537e-18
  29    -0.0002131419249764
  30    8.3723352381161e-06
  31    -6.575645815637e-06
  32    8.1016381662227e-05
  33    -0.00011229047067903
  34    -0.00021314192497641
  35    8.3723352379954e-06
  36    6.5756458156372e-06
  37    8.1016381662254e-05
  38    -0.00011229047067903
  39    0.00021314192421991
  40    -8.3723357526355e-06
  41    6.5756458678307e-06
  42    8.1016381201115e-05
  43    -0.00011229047046142
  44    0.00021314192421994
  45    -8.3723357526235e-06
  46    -6.5756458678305e-06
  47    8.1016381201123e-05
  48    -0.00011229047046142
  49      0.70781816506235
  50    0.00086470985802725
  51    -0.0034427015479288
  52    -4.5451003357421e-18
  53    0.00038230799223036
  54    -0.00063656984219191
  55    1.1319820493981e-17
  56    -0.00048186666646604
  57     0.000937050428913
  58    -7.3232558976618e-05
  59    -3.9773887598797e-19
  60    0.00011338410939891
  61    3.6077042792017e-05
  62    3.5345150723102e-19
  63     -0.70781816192062
  64    -0.00086470985457524
  65    0.0034427015334264
  66    2.9354222162683e-18
  67    0.00038230799038583
  68    -0.00063656983956235
  69    -9.9190192205445e-18
  70    -0.00048186666373962
  71    0.00093705042559141
  72    7.3232558645948e-05
  73    -7.942102693501e-21
  74    -0.00011338410886025
  75    -3.607704262682e-05
  76    1.031285649521e-19
 Sym= A
 Ene=               1
 Spin= Alpha
 Occup=    1.00000
   1    -6.010627529174e-05
   2    -8.1237107340274e-05
   3    0.0014779148079934
   4    9.5076934167367e-17
   5    -9.0440170621385e-05
   6    0.00032427739405048
   7    -7.9415611120303e-17
   8    -0.00063064639722147
   9    0.00091302159932484
  10    1.9278314613718e-05
  11    7.1525714687157e-18
  12    -0.00010534045595768
  13    -3.0842532720256e-05
  14    -2.6054557468259e-17
  15    -6.0106275696849e-05
  16    -8.1237107772748e-05
  17    0.0014779148204837
  18    -6.7836921301076e-18
  19    9.0440171386794e-05
  20    -0.00032427739489958
  21    9.4582315770786e-17
  22    0.00063064640155187
  23    -0.00091302159978477
  24    1.9278314995948e-05
  25    4.2738596342665e-18
  26    -0.00010534045591265
  27    -3.0842532724346e-05
  28    -5.6154830189144e-18
  29    -0.00017041172150817
  30    -0.00011590851434527
  31    1.176818130983e-05
  32    0.00010389626288502
  33    -4.9016850071684e-05
  34    -0.0001704117215082
  35    -0.00011590851434539
  36    -1.1768181309844e-05
  37    0.00010389626288505
  38    -4.9016850071679e-05
  39    -0.00017041172245396
  40    -0.0001159085143081
  41    1.1768181280533e-05
  42    -0.00010389626324455
  43    4.9016850570132e-05
  44    -0.00017041172245395
  45    -0.00011590851430797
  46    -1.1768181280533e-05
  47    -0.00010389626324454
  48    4.9016850570127e-05
  49      0.70777388279475
  50    0.00077781297391759
  51     -0.00326715832152
  52    -6.1537250229616e-18
  53    0.00041551093860554
  54    -0.00059234719155909
  55    1.5574907045764e-17
  56    -0.00061422432548862
  57    0.00074830616779845
  58    -7.4441688342356e-05
  59    -5.8038149016244e-19
  60    0.00012136078369709
  61    3.7315043605564e-05
  62    1.3045493932081e-19
  63      0.70777388593667
  64    0.00077781297775643
  65    -0.0032671583368025
  66    1.5012819051269e-18
  67    -0.00041551094030259
  68    0.0005923471943848
  69    -1.1029198316664e-17
  70    0.00061422432762764
  71    -0.00074830617195819
  72    -7.4441688667566e-05
  73    -1.2137380701475e-18
  74    0.00012136078420061
  75    3.7315043766015e-05
  76    7.3339208300173e-19
 Sym= A
 Ene=               2
 Spin= Alpha
 Occup=    1.00000
   1      0.70850458098124
   2    0.0028911345617408
   3    -0.0044309834444596
   4    -1.2467395636303e-16
   5    -0.00046157620881258
   6    0.0005410177481421
   7    1.7055310363902e-16
   8    -0.0003850534755418
   9    0.00019307857746224
  10    -0.00012019002394431
  11    1.4087172474981e-18
  12    -0.00014935222741178
  13    2.1061507416121e-05
  14    -1.055019397393e-16
  15      0.70850458095896
  16    0.0028911345616454
  17    -0.0044309834442139
  18    -5.0230844467997e-17
  19    0.00046157620880251
  20    -0.00054101774811997
  21    -1.0835031539706e-16
  22    0.00038505347556677
  23    -0.00019307857741517
  24    -0.00012019002394544
  25    -1.6746878863358e-17
  26    -0.00014935222740943
  27    2.1061507414858e-05
  28    5.6476835716633e-17
  29    6.8821842440709e-05
  30    0.0010904638408144
  31    0.00011048515853744
  32    5.8422644120548e-05
  33    -0.00013362116453574
  34    6.8821842440427e-05
  35    0.0010904638408146
  36    -0.00011048515853756
  37    5.842264412058e-05
  38    -0.00013362116453575
  39    6.8821842432161e-05
  40    0.0010904638407899
  41    0.00011048515853337
  42    -5.8422644116334e-05
  43    0.00013362116453409
  44    6.882184243208e-05
  45    0.0010904638407897
  46    -0.00011048515853348
  47    -5.8422644116349e-05
  48    0.00013362116453409
  49    3.965297837727e-05
  50    0.00020984315700308
  51    -0.00017201701572714
  52    1.9061159150335e-18
  53    0.00016168370794449
  54    -0.00015994889181122
  55    -1.8808872469808e-17
  56    -0.00041019572199525
  57    0.00037283788037962
  58    -7.7284826012659e-05
  59    5.8702364822876e-18
  60    0.00014384419192712
  61    3.4538514825613e-05
  62    -6.9939044627806e-19
  63    3.9652978374566e-05
  64    0.00020984315699307
  65    -0.00017201701572058
  66    -1.9712791030668e-18
  67    -0.00016168370794041
  68    0.00015994889180403
  69    1.3762386770944e-17
  70    0.00041019572198464
  71    -0.00037283788036389
  72    -7.7284826009184e-05
  73    -1.7045077594383e-18
  74    0.00014384419192311
  75    3.453851482362e-05
  76    1.1141367947621e-18
 Sym= A
 Ene=               3
 Spin= Alpha
 Occup=    1.00000
   1     -0.70872544842497
   2    -0.0030866570191531
   3    0.0080123624049866
   4    1.4689430410784e-16
   5    0.00031066414575119
   6    -0.00069574410167407
   7    3.7120094167027e-16
   8    -0.00085549848843627
   9    -0.0015520984108503
  10    -2.9596026501186e-05
  11    6.5056653826953e-19
  12    7.4114920221038e-05
  13    -4.4848394807034e-05
  14    1.402160542248e-16
  15      0.70872544844725
  16    0.0030866570192442
  17    -0.0080123624051271
  18    -3.7287385798087e-17
  19    0.00031066414576558
  20    -0.00069574410169162
  21    -3.8163341214664e-16
  22    -0.00085549848842334
  23    -0.0015520984108565
  24    2.9596026497561e-05
  25    8.4551932652075e-18
  26    -7.4114920225821e-05
  27    4.4848394807633e-05
  28    7.9489778957688e-17
  29    -0.00027563966723744
  30    -0.00078776352039802
  31    -0.0001342783944322
  32    -0.00013345546915746
  33    5.4042420916311e-05
  34    -0.00027563966723712
  35    -0.0007877635203975
  36    0.00013427839443238
  37    -0.00013345546915758
  38    5.4042420916329e-05
  39    0.00027563966723964
  40    0.0007877635204328
  41    0.00013427839443569
  42    -0.00013345546915943
  43    5.4042420920431e-05
  44    0.00027563966723949
  45    0.00078776352043226
  46    -0.00013427839443583
  47    -0.00013345546915948
  48    5.4042420920462e-05
  49    -8.4333716355661e-05
  50    -0.00030660308446233
  51    0.00016700870304805
  52    1.4761829359219e-17
  53    -0.0001302532323022
  54    0.0002254737798943
  55    -6.96567594736e-17
  56    0.00033512106653612
  57    -0.00047878558054316
  58    0.00010373013482956
  59    -5.5887435305027e-19
  60    -0.00011975835636659
  61    -5.9684187816469e-05
  62    -2.1010478858071e-18
  63    8.4333716356931e-05
  64    0.00030660308446903
  65    -0.0001670087030538
  66    -9.4691127186482e-18
  67    -0.00013025323230725
  68    0.00022547377989924
  69    5.8090822776897e-17
  70    0.00033512106654892
  71    -0.00047878558055476
  72    -0.00010373013483225
  73    1.7355331779906e-18
  74    0.00011975835637155
  75    5.9684187817641e-05
  76    -2.9039397990225e-18
 Sym= A
 Ene=               4
 Spin= Alpha
 Occup=    1.00000
   1    -0.0071846551758043
   2      0.08373469386084
   3      0.02050308647408
   4    -3.2663692737419e-16
   5    -0.043189810321806
   6      0.04068379891096
   7    -2.1202709107982e-15
   8    -0.0089351234510687
   9    0.0031205762060505
  10     0.014123621714708
  11    4.5543624166153e-17
  12    -0.012669552463411
  13    -0.0065172302429981
  14    1.2875257859861e-16
  15    -0.0071846551758077
  16     0.083734693860758
  17     0.020503086474182
  18    -7.5866357511339e-17
  19     0.043189810321771
  20    -0.040683798910892
  21    9.3228364951968e-16
  22    0.0089351234510908
  23    -0.0031205762060031
  24     0.014123621714699
  25    9.0039589420754e-17
  26    -0.012669552463389
  27    -0.006517230242992
  28    -6.3827524214128e-17
  29     0.019637527913363
  30    0.0035970836631214
  31    -0.0041485133841748
  32    -0.0034785856394841
  33    0.00084696191564711
  34     0.019637527913363
  35    0.0035970836631184
  36    0.0041485133841749
  37    -0.0034785856394839
  38    0.0008469619156471
  39      0.01963752791334
  40    0.0035970836631101
  41    -0.0041485133841708
  42    0.0034785856394788
  43    -0.00084696191564657
  44     0.019637527913341
  45    0.0035970836631114
  46    0.0041485133841709
  47     0.003478585639479
  48    -0.00084696191564653
  49    -0.0048932634662259
  50      0.32791652650413
  51      0.36291908351512
  52    -2.0540460601297e-16
  53     0.024197806721803
  54    -0.039653425583124
  55    1.4596715135809e-16
  56     0.011609272867384
  57    -0.019441128657505
  58    0.0033240543937623
  59    -2.7633880904408e-19
  60    -0.0043405805384916
  61    -0.0014249950493431
  62    -3.2449879046564e-18
  63    -0.0048932634662204
  64      0.32791652650378
  65      0.36291908351473
  66    -6.5583293418082e-17
  67    -0.024197806721777
  68     0.039653425583085
  69    -2.0709276876543e-16
  70    -0.011609272867371
  71     0.019441128657479
  72     0.003324054393759
  73    -6.0478990203677e-18
  74    -0.0043405805384868
  75    -0.0014249950493415
  76    1.059550708919e-18
 Sym= A
 Ene=               5
 Spin= Alpha
 Occup=    1.00000
   1     0.005047322545961
   2    -0.063441070598227
   3     0.014038382028126
   4    6.1647176609878e-16
   5     0.034189113956483
   6    -0.063774066071883
   7    3.3172595094703e-15
   8     -0.00233461987082
   9    -0.022099295262216
  10    -0.009292421671276
  11    4.4837631443517e-17
  12      0.02000375541473
  13    0.0068006850051275
  14    2.8684366467654e-16
  15    -0.0050473225459715
  16     0.063441070598306
  17    -0.014038382028083
  18    -1.0048082782139e-16
  19     0.034189113956526
  20    -0.063774066071925
  21    -7.0245557380391e-16
  22    -0.0023346198708158
  23    -0.022099295262223
  24    0.0092924216712898
  25    -5.2837825699664e-17
  26    -0.020003755414743
  27    -0.0068006850051337
  28    -1.2573171274869e-16
  29    -0.016405869912784
  30    -0.0014552366095967
  31    0.0028915861728817
  32    0.0034781610397416
  33    -0.0012105146420648
  34    -0.016405869912784
  35    -0.0014552366095906
  36    -0.0028915861728815
  37    0.0034781610397411
  38    -0.0012105146420647
  39     0.016405869912802
  40     0.001455236609589
  41    -0.0028915861728842
  42    0.0034781610397441
  43    -0.0012105146420656
  44     0.016405869912801
  45    0.0014552366095891
  46    0.0028915861728844
  47    0.0034781610397443
  48    -0.0012105146420654
  49     0.004749188242429
  50     -0.33307619540137
  51     -0.36760586761593
  52    1.8201000007718e-16
  53    -0.024041217441696
  54     0.037672140293887
  55    -3.7211645330299e-16
  56    -0.010981822660348
  57      0.01928221608719
  58    -0.0028463783343186
  59    8.3317901471397e-18
  60    0.0041868678339547
  61     0.001431228288369
  62    1.5108244658685e-18
  63    -0.0047491882424343
  64      0.33307619540171
  65       0.3676058676163
  66    -1.1693727652559e-16
  67     -0.02404121744172
  68     0.037672140293927
  69    1.3571889487567e-16
  70    -0.010981822660358
  71     0.019282216087208
  72    0.0028463783343224
  73    4.0664971979276e-19
  74    -0.0041868678339588
  75    -0.0014312282883703
  76    -1.9196744536171e-18
 Sym= A
 Ene=               6
 Spin= Alpha
 Occup=    1.00000
   1    -0.0082520926628038
   2      0.28640391470595
   3      0.15726947764974
   4    2.9945436792444e-16
   5    -0.044452363763016
   6    -0.091337828205169
   7    1.9918461342625e-15
   8    -0.0057767450899433
   9    -0.038548670178573
  10    0.0040654202149744
  11    -1.3278932927971e-16
  12     0.015048273028056
  13    -0.0067126604410151
  14    7.6218550890324e-16
  15    -0.0082520926627952
  16      0.28640391470595
  17      0.15726947764964
  18    4.7689326756249e-16
  19     0.044452363763025
  20     0.091337828205169
  21    -1.3765183856611e-15
  22    0.0057767450899214
  23     0.038548670178545
  24    0.0040654202149742
  25    3.2178958089564e-17
  26     0.015048273028056
  27    -0.0067126604410152
  28    -9.1234965784918e-17
  29      0.11607945931213
  30    0.0036839950464048
  31    -0.012798881481909
  32    -0.0099316099900407
  33    -0.0013110026931285
  34      0.11607945931213
  35    0.0036839950464059
  36      0.01279888148191
  37    -0.009931609990041
  38    -0.0013110026931285
  39      0.11607945931213
  40     0.003683995046408
  41    -0.012798881481909
  42    0.0099316099900412
  43    0.0013110026931292
  44      0.11607945931213
  45    0.0036839950464079
  46     0.012798881481909
  47    0.0099316099900416
  48    0.0013110026931292
  49    -0.00070847111788209
  50     -0.11209405268193
  51     -0.15488700734572
  52    2.6082562660482e-16
  53     0.049198428986984
  54     -0.12039931238431
  55    -3.3797775013952e-17
  56     0.035319782022634
  57    -0.070649217130585
  58    0.0051605245903714
  59    -7.2753219523226e-18
  60    -0.005269085862106
  61    -0.0013477304880264
  62    3.7738726853496e-18
  63    -0.00070847111788394
  64     -0.11209405268193
  65      -0.1548870073457
  66    -7.6735258906584e-17
  67     -0.04919842898698
  68      0.12039931238431
  69    2.0765656774789e-16
  70    -0.035319782022634
  71     0.070649217130586
  72    0.0051605245903714
  73    4.7415610033024e-18
  74    -0.0052690858621056
  75    -0.0013477304880265
  76    -8.4828026729867e-18
 Sym= A
 Ene=               7
 Spin= Alpha
 Occup=    1.00000
   1    0.0032235734849977
   2     -0.24386294439033
   3     -0.10671611345537
   4    8.0780986080108e-16
   5     -0.09411296753033
   6     -0.08123000989471
   7    4.984216498113e-15
   8    -0.052623843034943
   9    -0.015412866595913
  10    -0.001332776568226
  11    2.9921201161919e-17
  12     0.016281228075207
  13    -0.0041132542543788
  14    -2.1657191646599e-16
  15    -0.0032235734849983
  16      0.24386294439035
  17      0.10671611345537
  18    4.0377567570345e-16
  19    -0.094112967530319
  20    -0.081230009894702
  21    -3.0257228069259e-15
  22    -0.052623843034941
  23    -0.015412866595906
  24    0.0013327765682265
  25    -1.255606716154e-16
  26    -0.016281228075207
  27    0.0041132542543781
  28    3.0315598888996e-16
  29     -0.15873654108506
  30    -0.021636950484329
  31     0.016296477028173
  32    0.0099599610379471
  33    -0.0021632190899621
  34     -0.15873654108506
  35    -0.021636950484321
  36    -0.016296477028174
  37    0.0099599610379466
  38    -0.002163219089962
  39      0.15873654108507
  40     0.021636950484327
  41    -0.016296477028175
  42    0.0099599610379477
  43    -0.002163219089962
  44      0.15873654108506
  45     0.021636950484325
  46     0.016296477028175
  47    0.0099599610379477
  48    -0.0021632190899618
  49    0.0022974498197932
  50     0.085942609907916
  51      0.11775425606429
  52    5.007208437819e-16
  53     -0.16879248071505
  54      0.12520688621645
  55    -4.5576774777863e-16
  56      -0.1062294696688
  57     0.084373506893452
  58    -0.0024602460866192
  59    -2.0545264716004e-18
  60    0.0088926838894156
  61    0.0037104318606963
  62    4.2530751605556e-18
  63    -0.0022974498197936
  64    -0.085942609907921
  65     -0.11775425606429
  66     5.80740399407e-17
  67     -0.16879248071504
  68      0.12520688621646
  69    6.8034189522848e-16
  70      -0.1062294696688
  71     0.084373506893458
  72    0.0024602460866195
  73    8.4900234603922e-18
  74    -0.0088926838894156
  75    -0.0037104318606964
  76    -4.8959189482944e-18
 Sym= A
 Ene=               8
 Spin= Alpha
 Occup=    1.00000
   1    -3.9668918923446e-16
   2    -4.2186864922537e-15
   3    8.0643726870847e-16
   4      0.23592756167285
   5    -1.1712335018768e-13
   6    1.9095241168064e-14
   7     0.094943541082217
   8    -4.6528598853216e-14
   9    -1.7534479105917e-14
  10    -1.365154575727e-15
  11    0.0056577901174733
  12    -8.15055306424e-15
  13    -1.2495369831116e-14
  14    -0.0059534058384001
  15    1.4909786820992e-16
  16    1.130278897404e-15
  17    -2.531887229099e-15
  18      0.23592756167284
  19    -6.7925748452433e-14
  20    9.7216405488291e-14
  21     0.094943541082199
  22    -2.6431431202119e-14
  23    1.4764847258501e-14
  24    -4.740839591644e-15
  25    -0.0056577901174731
  26    1.4251097343062e-14
  27    7.5724163025283e-15
  28    0.0059534058384012
  29      0.13681266211576
  30     0.029656071247078
  31    -0.0081077993468632
  32    -0.0088061045972477
  33    -0.0017865906321995
  34     -0.13681266211586
  35    -0.029656071247103
  36    -0.0081077993468723
  37    0.0088061045972466
  38    0.0017865906322036
  39      0.13681266211583
  40     0.029656071247106
  41    -0.008107799346871
  42    0.0088061045972476
  43     0.001786590632205
  44     -0.13681266211577
  45    -0.029656071247089
  46    -0.0081077993468654
  47    -0.0088061045972478
  48    -0.0017865906321982
  49    -3.5518277807316e-16
  50    -2.2725472252597e-14
  51    -3.8335878254871e-14
  52      0.30572374396071
  53    -7.8036084846078e-14
  54    -1.9125145185846e-13
  55      0.20096289295577
  56    -5.0983897191638e-14
  57    -1.2825342879055e-13
  58    6.0081622450536e-15
  59    -0.0080450214309434
  60    -1.027122294148e-15
  61    8.4097964500365e-16
  62    0.0050554529505586
  63    -1.3950744117869e-16
  64    3.1800067913958e-14
  65    6.2156915033028e-14
  66      0.30572374396071
  67    7.3756936454192e-14
  68    -1.6290380548955e-13
  69      0.20096289295577
  70    4.872697075165e-14
  71    -1.075899511837e-13
  72    -3.8677505368512e-15
  73    0.0080450214309427
  74    4.4351584693222e-15
  75    1.2656097129528e-15
  76    -0.005055452950559
 Sym= A
 Ene=               9
 Spin= Alpha
 Occup=    1.00000
   1    -0.0029563564292881
   2    0.00025649965262774
   3     0.033977429586637
   4    1.1320344894175e-13
   5       0.1901615160981
   6     -0.11868575836367
   7    4.2233094242366e-14
   8     0.063542668538498
   9    -0.010421760907122
  10    -0.0021902686524436
  11    2.652593193295e-15
  12     0.023158880418716
  13     0.019468129087856
  14    -3.3372084424669e-15
  15    0.0029563564292877
  16    -0.00025649965262604
  17    -0.033977429586638
  18    1.1470903831784e-13
  19      0.19016151609807
  20     -0.11868575836368
  21    4.7466677313258e-14
  22     0.063542668538488
  23    -0.010421760907128
  24    0.0021902686524446
  25    -2.4435693077384e-15
  26    -0.023158880418713
  27    -0.019468129087854
  28    2.5001667238559e-15
  29     0.080712171666013
  30     0.020521764053239
  31    -0.0076278962749753
  32    0.00045995029171122
  33    -0.0052244532732089
  34     0.080712171665881
  35     0.020521764053205
  36    0.0076278962749666
  37    0.0004599502917201
  38    -0.0052244532732073
  39    -0.080712171665866
  40    -0.020521764053198
  41    0.0076278962749655
  42    0.00045995029172003
  43    -0.0052244532732071
  44    -0.080712171665996
  45     -0.02052176405323
  46    -0.007627896274973
  47    0.00045995029171137
  48    -0.0052244532732087
  49     0.001071317432671
  50     0.057238090112729
  51     0.098344661691361
  52    1.4854915888427e-13
  53    0.0085063874287253
  54      0.36634337566656
  55    9.8009535363035e-14
  56    0.0061774174538571
  57      0.24635235924301
  58    -0.010413812123502
  59    -3.909782816868e-15
  60    0.0058186745953863
  61    0.00038479581529053
  62    2.4364426015917e-15
  63    -0.0010713174326706
  64    -0.057238090112727
  65     -0.09834466169136
  66    1.4896088860736e-13
  67    0.0085063874286874
  68      0.36634337566651
  69    9.786384348071e-14
  70     0.006177417453831
  71      0.24635235924298
  72       0.0104138121235
  73    3.9170055148947e-15
  74    -0.0058186745953864
  75    -0.00038479581529094
  76    -2.4600748714709e-15
 Sym= A
 Ene=              10
 Spin= Alpha
 Occup=    1.00000
   1    0.0011033891282733
   2    0.0084007093124392
   3    -0.0014780165199373
   4    5.1014508880729e-14
   5      0.12065064552847
   6      0.19534647632172
   7    2.029013587144e-14
   8     0.055111313609125
   9     0.076335489766918
  10     0.016326113677091
  11    1.8351311420331e-15
  12    -0.013494536279876
  13     0.012519972539978
  14    -1.637057330475e-15
  15    0.0011033891282678
  16    0.0084007093124355
  17    -0.0014780165198738
  18    4.4866038733363e-14
  19     -0.12065064552849
  20     -0.19534647632171
  21    2.2744080192723e-14
  22    -0.055111313609107
  23    -0.076335489766892
  24     0.016326113677092
  25    2.5713389315238e-16
  26    -0.013494536279873
  27     0.012519972539979
  28    9.7193780583756e-16
  29     0.053280165607225
  30    0.0078767294314537
  31    -0.005639454358174
  32    8.7242508021328e-05
  33    0.0040716223890001
  34     0.053280165607167
  35    0.0078767294314401
  36    0.0056394543581704
  37    8.7242508024682e-05
  38        0.004071622389
  39     0.053280165607235
  40    0.0078767294314556
  41    -0.0056394543581759
  42    -8.7242508021678e-05
  43    -0.0040716223889999
  44     0.053280165607182
  45    0.0078767294314525
  46     0.005639454358173
  47    -8.7242508025018e-05
  48    -0.0040716223890003
  49    0.0005454137920791
  50    -0.023408596227453
  51    -0.051326423875483
  52    7.3071837247555e-14
  53      0.37602788321559
  54     0.065168719081344
  55    4.8496149169356e-14
  56      0.24936045421566
  57     0.044359559484952
  58    -0.0048131851420367
  59    -1.8707417851857e-15
  60    -0.0082449059174059
  61    -0.0056611545734952
  62    1.1478715751011e-15
  63    0.00054541379208011
  64    -0.023408596227444
  65     -0.05132642387548
  66    4.7293788861829e-14
  67     -0.37602788321558
  68    -0.065168719081386
  69    3.0287111171292e-14
  70     -0.24936045421566
  71    -0.044359559484985
  72    -0.0048131851420381
  73    1.3376438456508e-15
  74    -0.0082449059174052
  75    -0.0056611545734952
  76    -8.1370794708961e-16
 Sym= A
 Ene=              11
 Spin= Alpha
 Occup=    1.00000
   1    7.4190738148379e-16
   2    1.866605844234e-15
   3    -3.8166832792298e-16
   4     -0.15350877062211
   5    3.5732351213304e-15
   6    5.7176461525841e-15