[Molden Format]
made by pyscf v[2.0.1]
[Atoms] (AU)
C   1   6     0.00000000000000     0.00000000000000     0.00000000000000
C   2   6     2.85207482267819     0.00000000000000     0.00000000000000
F   3   9     3.65415199667903     0.00000000000000     2.45977207315200
H   4   1     3.58561868306314    -1.67891019462705    -0.93677358840720
H   5   1     3.58561868306314     1.67891019462705    -0.93677358840720
H   6   1    -0.73354386038494    -0.93677358840720    -1.67891019462705
F   7   9    -0.80207717400084     2.45977207315200     0.00000000000000
H   8   1    -0.73354386038494    -0.93677358840720     1.67891019462705
[GTO]
1 0
 s    8 1.00
                  6665  0.00069158396281299
                  1000  0.0053257961529341
                   228   0.027060721042034
                 64.71    0.10165684614077
                 21.06     0.2745748236174
                 7.495    0.44829431892377
                 2.797    0.28490261071525
                0.5215   0.015194859206082
 s    8 1.00
                  6665  -0.00029326965268655
                  1000  -0.0023180354739745
                   228  -0.011499786038565
                 64.71  -0.046826727009787
                 21.06   -0.12846616875047
                 7.495   -0.30126627246289
                 2.797   -0.25563070233011
                0.5215      1.093793361012
 s    1 1.00
                0.1596                   1
 p    3 1.00
                 9.439   0.056979251590039
                 2.002    0.31320721150073
                0.5456    0.76037674173753
 p    1 1.00
                0.1517                   1
 d    1 1.00
                  0.55                   1

2 0
 s    8 1.00
                  6665  0.00069158396281299
                  1000  0.0053257961529341
                   228   0.027060721042034
                 64.71    0.10165684614077
                 21.06     0.2745748236174
                 7.495    0.44829431892377
                 2.797    0.28490261071525
                0.5215   0.015194859206082
 s    8 1.00
                  6665  -0.00029326965268655
                  1000  -0.0023180354739745
                   228  -0.011499786038565
                 64.71  -0.046826727009787
                 21.06   -0.12846616875047
                 7.495   -0.30126627246289
                 2.797   -0.25563070233011
                0.5215      1.093793361012
 s    1 1.00
                0.1596                   1
 p    3 1.00
                 9.439   0.056979251590039
                 2.002    0.31320721150073
                0.5456    0.76037674173753
 p    1 1.00
                0.1517                   1
 d    1 1.00
                  0.55                   1

3 0
 s    8 1.00
                 14710  0.00072067370873197
                  2207  0.0055504869689163
                 502.8   0.028254207662589
                 142.6    0.10639582836653
                 46.47    0.28668420124307
                  16.7    0.44843796582416
                 6.356    0.26464118141135
                 1.316   0.015326060993048
 s    8 1.00
                 14710  -0.00032119389049893
                  2207  -0.0025461915683188
                 502.8  -0.012643359507821
                 142.6   -0.05195749170489
                 46.47   -0.14344713812646
                  16.7   -0.33243762329603
                 6.356   -0.21865906750347
                 1.316     1.0955904138622
 s    1 1.00
                0.3897                   1
 p    3 1.00
                 22.67   0.064834021493887
                 4.977    0.34053535983101
                 1.347    0.73464640679382
 p    1 1.00
                0.3471                   1
 d    1 1.00
                  1.64                   1

4 0
 s    3 1.00
                 13.01   0.033498726389998
                 1.962    0.23480080117413
                0.4446     0.8136829578829
 s    1 1.00
                 0.122                   1
 p    1 1.00
                 0.727                   1

5 0
 s    3 1.00
                 13.01   0.033498726389998
                 1.962    0.23480080117413
                0.4446     0.8136829578829
 s    1 1.00
                 0.122                   1
 p    1 1.00
                 0.727                   1

6 0
 s    3 1.00
                 13.01   0.033498726389998
                 1.962    0.23480080117413
                0.4446     0.8136829578829
 s    1 1.00
                 0.122                   1
 p    1 1.00
                 0.727                   1

7 0
 s    8 1.00
                 14710  0.00072067370873197
                  2207  0.0055504869689163
                 502.8   0.028254207662589
                 142.6    0.10639582836653
                 46.47    0.28668420124307
                  16.7    0.44843796582416
                 6.356    0.26464118141135
                 1.316   0.015326060993048
 s    8 1.00
                 14710  -0.00032119389049893
                  2207  -0.0025461915683188
                 502.8  -0.012643359507821
                 142.6   -0.05195749170489
                 46.47   -0.14344713812646
                  16.7   -0.33243762329603
                 6.356   -0.21865906750347
                 1.316     1.0955904138622
 s    1 1.00
                0.3897                   1
 p    3 1.00
                 22.67   0.064834021493887
                 4.977    0.34053535983101
                 1.347    0.73464640679382
 p    1 1.00
                0.3471                   1
 d    1 1.00
                  1.64                   1

8 0
 s    3 1.00
                 13.01   0.033498726389998
                 1.962    0.23480080117413
                0.4446     0.8136829578829
 s    1 1.00
                 0.122                   1
 p    1 1.00
                 0.727                   1

[5d]
[7f]
[9g]

[MO]
 Sym= A
 Ene=               0
 Spin= Alpha
 Occup=    1.00000
   1    -0.00011425898999725
   2    -0.00065333827477703
   3    0.0024147113055611
   4    -0.0011485651810366
   5    -8.9724712141731e-05
   6    -1.939189992046e-05
   7    0.0010184646492333
   8    0.00012954696051284
   9    -0.00025711000119092
  10    0.00019793485250377
  11    -3.412431695707e-05
  12    4.6052991323628e-06
  13    -0.0002955208885845
  14    -4.6550059936899e-06
  15       1.0022372855725
  16    -0.00084090123655646
  17    -0.011750047937037
  18    -0.00053450989256768
  19    -0.00013754424786834
  20    0.0023602186669221
  21    0.00088314881539914
  22    -4.0365006917827e-05
  23    0.0013380758352869
  24    0.00010047969414807
  25    4.3839308501233e-06
  26    2.3654201761736e-05
  27    -0.00012706985979222
  28    -1.2935575332545e-05
  29    0.00015056768067015
  30    4.0620692821096e-05
  31    -0.00028478962170485
  32    0.00036270234657066
  33    -6.9028706792165e-07
  34    0.00092769548360824
  35    0.00046975822943523
  36    1.5415739274394e-05
  37    0.0014433629335196
  38    -0.00030759650022846
  39    -0.00015989408953068
  40    -1.1545033651475e-06
  41    -2.5707763138421e-05
  42    3.9914592612538e-08
  43    -0.0030989484311578
  44    0.00078503529765093
  45    0.00011693166115505
  46    -0.00054815852316721
  47    -0.00035339504736428
  48    -0.0030768548670273
  49    0.00083176810326618
  50    9.2710109989565e-05
  51    0.00051513294962682
  52    -0.00032611946262566
  53    0.00016684171082679
  54    0.00030958166559899
  55    2.9075919296019e-05
  56    3.1980380355127e-06
  57    4.926226130832e-05
  58    4.8611207137865e-07
  59    6.9145267128805e-05
  60    -4.9800816179092e-05
  61    0.00024025624184081
  62    -1.8462501792848e-05
  63    -3.2828333249319e-05
  64    0.00028901661255529
  65    2.5569445814853e-05
  66    2.7396516667596e-05
  67    -1.6438451940524e-05
  68    5.5813403496011e-06
  69    3.3907653014545e-06
  70    1.4121257848368e-05
  71    2.3430111563142e-06
  72    -4.0495474502637e-05
  73    0.00036116534407473
  74    7.177240672145e-05
  75    -1.307140110158e-05
  76    -2.4986272202292e-05
 Sym= A
 Ene=               1
 Spin= Alpha
 Occup=    1.00000
   1        1.002237285579
   2    -0.00084089810974683
   3    -0.011750045742686
   4    0.00053451067609938
   5    0.0023602179985759
   6    -0.00013754405205776
   7    -0.00088314835856115
   8    0.0013380753720309
   9    -4.0365296682031e-05
  10    5.9805874996324e-05
  11    1.2935649127529e-05
  12    2.3653868101354e-05
  13    -0.00015055292304833
  14    -4.3837822137589e-06
  15    -0.00011425890820895
  16    -0.00065333769874561
  17    0.0024147112169944
  18      0.00114856361281
  19    -1.9392363875517e-05
  20    -8.9724493377839e-05
  21    -0.0010184650401002
  22    -0.00025711016067777
  23    0.00012954722859758
  24    0.00015696099069592
  25    4.6550331840828e-06
  26    4.605386657943e-06
  27    -0.00031917682599292
  28    3.4124358915937e-05
  29    4.8422394442315e-07
  30    6.9144214362419e-05
  31    -4.9802124235083e-05
  32    -0.00024025466929198
  33    -3.2826787491229e-05
  34    -1.8463136892904e-05
  35    -0.00028901540173709
  36    2.7397630211876e-05
  37    2.5568964428327e-05
  38    -4.0101330055927e-06
  39    -2.3430194818013e-06
  40    3.3907457051686e-06
  41    2.1296746482533e-05
  42    -5.581347204011e-06
  43    0.0001668418058485
  44    0.00030958163251572
  45    -2.9075938202195e-05
  46    4.926225551975e-05
  47    3.1980574392979e-06
  48    -4.0496220246052e-05
  49    0.00036116519561881
  50    -7.1772465500769e-05
  51    -2.498623293891e-05
  52    -1.3071418227144e-05
  53    -0.0030989474179485
  54    0.00078503492340699
  55    -0.0001169315851289
  56    -0.000353394990128
  57    -0.0005481583587714
  58    0.00015058851599449
  59    4.0619671284393e-05
  60    -0.00028479101554376
  61    -0.00036269879810548
  62    0.00092769557991218
  63    -6.9647092922656e-07
  64    -0.00046975579561816
  65    0.0014433631303754
  66    1.5411365897483e-05
  67    0.00017606179845831
  68    -3.9955008337518e-08
  69    -1.1543961576217e-06
  70    0.00025353250057111
  71    0.00015989400074854
  72    -0.0030768526698858
  73    0.00083176865414652
  74    -9.2710050995646e-05
  75    -0.00032611936675072
  76    0.00051513278652312
 Sym= A
 Ene=               2
 Spin= Alpha
 Occup=    1.00000
   1    3.7510607379734e-05
   2    5.3160173759619e-05
   3    -0.00099941046582923
   4    -0.00013651589068077
   5    -2.6595824376173e-06
   6    2.2595646159767e-05
   7    -0.0003871069282889
   8    4.2511161828097e-05
   9    -0.00020269209590333
  10    9.1979081392147e-05
  11    -2.9539283497772e-05
  12    -2.1159250068205e-05
  13    -1.7087648855631e-05
  14    5.6902524918099e-06
  15    -4.4191005692347e-05
  16    5.2751641123421e-05
  17    0.0030518791144325
  18    0.00023888380554512
  19    -4.1379003575406e-06
  20    0.0005117739914151
  21    -2.6894863467326e-05
  22    5.6501872564482e-06
  23    0.0012399465124361
  24    -1.0345668732878e-05
  25    -4.3278196962747e-06
  26    -7.3713873091939e-06
  27    -9.7129632633209e-06
  28    5.0040366037707e-06
  29       1.0009668448212
  30    -0.0038237342757218
  31     -0.01045900720335
  32    -0.00097629872607201
  33    -8.3050391390194e-05
  34    -0.0026332084779829
  35    -2.6959417017148e-05
  36    -5.6733662032526e-05
  37    0.00012461159761003
  38    -0.00015790510480498
  39    -8.5809833912338e-05
  40    3.9822352914677e-06
  41    -8.3650154762424e-06
  42    1.4481283219134e-06
  43    -0.00026136164183336
  44    -0.00022852618611816
  45    8.4734281951943e-06
  46    -2.4173180658105e-05
  47    -0.00015810461812877
  48    -0.00026876185104846
  49    -0.00020443784140152
  50    1.0205156357693e-05
  51    2.5361562692987e-05
  52    -0.00016103074308871
  53    4.2395784642451e-05
  54    0.00013429622653607
  55    2.7182942299759e-05
  56    -2.4536773507306e-05
  57    3.5173211774272e-05
  58    1.9299281230739e-05
  59    4.2275973177674e-05
  60    -1.9983199737828e-06
  61    3.8392956973615e-05
  62    -5.5256238452732e-06
  63    4.8815477430559e-06
  64    -6.4988801549966e-05
  65    -1.6948261237801e-05
  66    -1.0317669820029e-05
  67    1.6928228821927e-06
  68    -6.9216378126029e-06
  69    -3.2904378836515e-06
  70    -1.3826529303072e-05
  71    2.566123910941e-06
  72    2.9004241521259e-05
  73    -3.7493632102724e-05
  74    -6.7850767586134e-05
  75    -1.6264743748134e-05
  76    -6.1534509388934e-06
 Sym= A
 Ene=               3
 Spin= Alpha
 Occup=    1.00000
   1    -4.4401704882348e-05
   2    5.1813560320814e-05
   3    0.0030510612986673
   4    -0.00023837036237373
   5    0.0005103007346614
   6    -4.1414899616819e-06
   7    2.6828031458808e-05
   8    0.0012398537305952
   9    5.6128311745156e-06
  10    1.3557440582164e-05
  11    -5.0149566000838e-06
  12    -7.3661576522997e-06
  13    4.0550329847535e-06
  14    4.3057591094502e-06
  15    3.748974555379e-05
  16    5.3183364128596e-05
  17    -0.00099926099001016
  18    0.00013640267818322
  19    2.2615211578797e-05
  20    -2.6474715122155e-06
  21    0.0003866310546917
  22    -0.00020285430202588
  23    4.2703134384002e-05
  24    -3.118692673716e-05
  25    -5.6843351277685e-06
  26    -2.1166818009609e-05
  27    -8.8184440937689e-05
  28    2.963172620023e-05
  29    1.9313379564909e-05
  30    4.2279309128108e-05
  31    -2.1142256503875e-06
  32    -3.8375078708846e-05
  33    4.8891992554267e-06
  34    -5.5364022074009e-06
  35    6.5081071407998e-05
  36    -1.0304651145253e-05
  37    -1.6954061077419e-05
  38    1.1127133134672e-05
  39    -2.5649577120253e-06
  40    -3.2919671201182e-06
  41    -8.3787762042358e-06
  42    6.9237287940586e-06
  43    4.2261753013125e-05
  44    0.00013416413218046
  45    -2.7187620246729e-05
  46    3.5193886165214e-05
  47    -2.4537906078414e-05
  48    2.9130756673618e-05
  49    -3.6928695710697e-05
  50    6.7829297322234e-05
  51    -6.1679560439862e-06
  52    -1.624910850172e-05
  53    -0.00026127917937691
  54    -0.00022815608012609
  55    -8.4336692798124e-06
  56    -0.00015816570187818
  57    -2.4143278325944e-05
  58       1.0009670083267
  59    -0.0038105477812418
  60    -0.010443507260447
  61    0.00097429806458722
  62    -0.0026266962906343
  63    -8.2991118933007e-05
  64    2.5563476845397e-05
  65    0.00012920238600446
  66    -5.6696850448514e-05
  67    8.6264302192253e-05
  68    -1.4484483846236e-06
  69    3.9797911308142e-06
  70    0.00013266771473764
  71    8.5877177536546e-05
  72    -0.00026869557582191
  73    -0.00020409024697761
  74    -1.0171313586555e-05
  75    -0.00016109305914744
  76    2.5334925048577e-05
 Sym= A
 Ene=               4
 Spin= Alpha
 Occup=    1.00000
   1    -0.001819887444566
   2    -0.016934627279053
   3    -0.035083306698224
   4    -0.022478034272233
   5    -0.0019635753619184
   6    -0.0037808545753765
   7    -0.013423504048389
   8    0.00041267344361326
   9     0.026419219135641
  10    0.0012456027855044
  11    -0.00044154056177938
  12    0.00092141873780212
  13    -0.00062294046485275
  14    -0.0012379175999791
  15    -0.00060811372132894
  16    -0.0016488418792437
  17    -0.0034238950984408
  18    -0.0052905126747696
  19    0.0073431580236378
  20    0.0018916522971702
  21    -0.019430768980869
  22     0.027602229472442
  23    -0.0096437741676539
  24    0.0098975190095684
  25    -0.015541229815279
  26     0.029027508814531
  27    -0.0076755487686925
  28    0.0070360306696277
  29    -0.00069954962514853
  30    0.00041835921662696
  31    0.0090765858127125
  32     -0.36252645699091
  33      0.54621412539254
  34      0.11705723800709
  35      -0.2564866086395
  36      0.38638038136892
  37     0.080783696765511
  38    -0.0037442821665016
  39    0.0059963412574751
  40    -0.0099279072707287
  41      0.00232537682993
  42    -0.0036077064433153
  43     0.048482738832328
  44     0.054585705252881
  45    0.00072949997427313
  46    -0.0010936754510094
  47    0.0018597435670605
  48    -0.022451591116501
  49    -0.025821230670683
  50    0.00095415131189167
  51    -0.00074518753524054
  52    -0.00022728432953911
  53    0.0099333986091815
  54     0.026324271920691
  55    -0.00033952009368348
  56    0.00086796062241238
  57    0.00086268076130693
  58    0.00025300272211837
  59    0.0009327552322291
  60    0.00098655447817352
  61     0.001139261310718
  62    -0.0012061012693971
  63    -0.0033661187462357
  64    0.0013678786915166
  65    -0.0012193947038871
  66    -0.0039290335156221
  67    0.00020277916929231
  68    0.00021049065890136
  69    0.00016493311714708
  70    -8.7938703876212e-05
  71    0.0004584465755315
  72    -0.0085716638345853
  73    -0.008399223686998
  74    -5.136065103438e-05
  75    -0.00040604777457378
  76    0.0010947410645786
 Sym= A
 Ene=               5
 Spin= Alpha
 Occup=    1.00000
   1    -0.00060806663972105
   2    -0.0016487285654376
   3    -0.003423885332152
   4     0.005290334515607
   5    0.0018918920882945
   6    0.0073432285721353
   7     0.019430428747461
   8    -0.0096436548835404
   9     0.027602508463566
  10    0.0016984279527009
  11    -0.0070360890722804
  12     0.029027755158129
  13    -0.012409052310907
  14     0.015540944175006
  15    -0.0018198846476815
  16     -0.01693432356998
  17    -0.035082351490398
  18     0.022477714684117
  19    -0.0037807393050598
  20    -0.0019636671534289
  21     0.013423357543395
  22     0.026419213675477
  23    0.00041241000125617
  24    -8.3308597019899e-05
  25    0.0012379235096032
  26    0.0009214193510494
  27    -0.0013901885534659
  28    0.00044151793019108
  29    0.0002530004414282
  30    0.0009327465004253
  31    0.00098659293761055
  32    -0.0011392337141247
  33    -0.0033661390563659
  34    -0.0012060712511685
  35     -0.00136784925357
  36    -0.0039290296833599
  37    -0.0012193495477166
  38    -2.5232925835801e-05
  39    -0.00045844162914787
  40    0.00016493013205837
  41    -0.00021958015193215
  42    -0.00021049146550436
  43    0.0099333053922529
  44     0.026324072852058
  45    0.00033948441890149
  46    0.00086267567031287
  47    0.00086795389935263
  48    -0.0085715258451834
  49    -0.008399659912507
  50    5.1413329202829e-05
  51    0.0010947215340426
  52    -0.00040604041461335
  53     0.048482757098693
  54     0.054585770039588
  55    -0.0007294899214559
  56     0.001859752235014
  57    -0.001093689890211
  58    -0.00069979501810946
  59    0.00041661979129523
  60    0.0090744103817879
  61      0.36252032995554
  62      0.11705427494353
  63      0.54621884607275
  64      0.25648225995074
  65     0.080781630705323
  66      0.38638371725528
  67    -0.00014170556431747
  68    0.0036077394496144
  69    -0.0099279920648005
  70    0.0044052406945296
  71    -0.0059962457747531
  72    -0.022452151727738
  73     -0.02582184748986
  74    -0.0009541406722964
  75    -0.00022729368027767
  76    -0.00074519102365889
 Sym= A
 Ene=               6
 Spin= Alpha
 Occup=    1.00000
   1    -0.0015967259361421
   2    -0.0032548199368013
   3    0.0038679317369328
   4    0.0084193736434436
   5     0.000884681507806
   6    -0.0048290561868463
   7     0.027958774595834
   8    -0.0072504086818613
   9    -0.021570329519359
  10    0.0023566670786587
  11    0.0046794219097822
  12    -0.019961306755881
  13     -0.01827001510516
  14       0.0228192243662
  15    3.291602084857e-05
  16    -0.020793958740161
  17    -0.076276550333493
  18     0.031765298060641
  19    -0.011433168928342
  20    0.0042077752063885
  21     0.018330937901844
  22    0.0014482662147671
  23     0.018021177968584
  24    -0.00089813260170981
  25    -0.00067907927853891
  26    0.00013727579201385
  27    -0.00099775420570842
  28     0.000611979250484
  29    0.00031551849042261
  30    0.00071383387290679
  31    -0.0019975566479882
  32    -0.0024170706052405
  33     0.001665702913099
  34    -0.0023752840174566
  35    -0.003618754740635
  36    -0.00025469200681611
  37    -0.0034382331163889
  38    0.00013832364804475
  39    -0.00044887386278451
  40    0.00028669060139826
  41    -0.00012368531340735
  42    4.6265623943543e-05
  43     0.015281663957981
  44     0.019605355881864
  45    0.0027853541423596
  46    0.00067016304835156
  47    0.0007491237182659
  48    -0.0093824490260893
  49     0.029861827856747
  50    -0.0040686888789189
  51    0.0013339428294638
  52    -0.00066421363815538
  53    -0.0065507244339237
  54    -0.009951615014919
  55    -0.0014110883183201
  56    -0.00010739223590755
  57    0.00053949888895481
  58    -0.0011553829594028
  59     0.011923339813435
  60      0.02427331868726
  61      0.51844413588209
  62      0.16946217124052
  63     -0.38137149449527
  64      0.36770057464351
  65       0.1176903594689
  66     -0.26952166589071
  67    0.00014069069750505
  68    -0.0026594168518626
  69    0.0068509779575438
  70    0.0062680620127754
  71    -0.0085190461427689
  72     0.041803762735382
  73     0.046059699737784
  74    -0.0013335581106943
  75    0.0014029016900523
  76    0.00084345032691038
 Sym= A
 Ene=               7
 Spin= Alpha
 Occup=    1.00000
   1    -3.294577649963e-05
   2     0.020793759523937
   3     0.076276160496057
   4     0.031765062462517
   5    -0.0042077993113146
   6     0.011433162727984
   7      0.01833087398817
   8    -0.018021137269768
   9    -0.0014479589581242
  10    -0.0013131349815204
  11    0.00061195307140687
  12    -0.00013726813002681
  13    -0.00027893347320027
  14    -0.00067909444674516
  15    0.0015966715769995
  16    0.0032546319029078
  17    -0.0038681222062428
  18     0.008419200224463
  19    0.0048291658646479
  20    -0.00088498344410993
  21     0.027958550510829
  22     0.021570673540706
  23    0.0072502624473707
  24    -0.014643837318814
  25      0.02281903520576
  26     0.019961670436136
  27     0.011175847101839
  28    0.0046795129876705
  29    0.0011545443992454
  30    -0.011920728318409
  31    -0.024270136700633
  32      0.51844013517433
  33      0.38137835135306
  34      -0.1694594138745
  35      0.36769773988248
  36      0.26952651420219
  37     -0.11768843957644
  38    0.0054985759068535
  39    -0.0085189871444374
  40     -0.00685110313991
  41    -0.0030121626343539
  42    -0.0026594620764227
  43    0.0065513507480087
  44    0.0099523671777398
  45    -0.0014110876707995
  46    -0.00053950538150849
  47    0.00010740274435625
  48    -0.041804001461555
  49    -0.046059947663862
  50    -0.0013335547085889
  51    -0.00084346725315372
  52    -0.0014029166172685
  53    -0.015281600041218
  54    -0.019605072906797
  55    0.0027853503384674
  56    -0.0007491144243176
  57    -0.00067014941466985
  58    -0.00031552031121345
  59    -0.00071383123121636
  60    0.0019975353496193
  61    -0.0024170622105348
  62    0.0023752741856103
  63    -0.0016657516378091
  64    -0.0036187590561235
  65    0.0034382216387348
  66    0.00025463797862298
  67    -3.7950239674567e-05
  68     4.62678758234e-05
  69    -0.00028668931058348
  70    0.00018163390584003
  71    -0.00044886851868749
  72    0.0093823941283522
  73    -0.029861812803809
  74    -0.0040686846280493
  75    0.00066421257941957
  76    -0.0013339330418542
 Sym= A
 Ene=               8
 Spin= Alpha
 Occup=    1.00000
   1    0.00012489830942229
   2     0.014276309019355
   3    -0.011747533082835
   4     0.023167213966933
   5    0.00087261809009204
   6    0.0046840353619956
   7     0.013764664674802
   8    0.0048876671264512
   9    -0.0055932262620841
  10    0.0039726971954619
  11    -0.011409311998248
  12    -0.0012981365329876
  13    -0.0022950252912059
  14    2.3800338403476e-05
  15    -0.001995147311215
  16     -0.15105863089201
  17    0.0060848400122889
  18    -0.094557134579799
  19    0.0001269594666036
  20     -0.28782183291634
  21    -0.023907002566467
  22    -0.0013748872757276
  23    -0.049416817985012
  24    -0.049713721788604
  25    -0.029623436394457
  26    5.4213519380549e-06
  27    -0.0057704907380869
  28    0.00036668668121864
  29    0.0040241123809099
  30     -0.15228393849104
  31     -0.12016001316214
  32      0.15411320003801
  33    -0.0013837325136422
  34        0.481326092185
  35      0.10157045020659
  36    -0.00082228483235194
  37      0.31658406997747
  38    -0.018067143074379
  39    -0.010860177566154
  40    -5.6279868671534e-05
  41    -0.0017641560550206
  42    4.0160210804859e-06
  43     0.012394344639614
  44     0.021094872743617
  45    -0.0014353412180967
  46    -0.0019924743830496
  47    -0.010102682988209
  48     0.012535793875054
  49     0.019700045387314
  50    -0.0012138695393248
  51    0.0020141846948956
  52    -0.010146453407484
  53    -0.018037211547596
  54    -0.019933523634611
  55    -5.3302301594282e-05
  56    -0.00065976045829048
  57    0.0013287701635259
  58    2.7887158141368e-05
  59    -0.0011728308076429
  60    -0.0026711077995285
  61    -0.0027769367890242
  62    0.00071244172590021
  63    0.00080916304193624
  64    -0.0073553775335949
  65    -0.000279054045979
  66    0.00073589210650193
  67    -0.00019485491979893
  68    -0.00015501059619161
  69    -0.00021266468095167
  70     0.000178215909491
  71    -0.00050375732326781
  72     0.012801043665012
  73     0.027502020688437
  74    0.00073500562389438
  75    -0.00019685757203209
  76    -0.00031539577513394
 Sym= A
 Ene=               9
 Spin= Alpha
 Occup=    1.00000
   1    -0.0019951474853956
   2     -0.15105865588127
   3    0.0060848224582222
   4     0.094557151332621
   5     -0.28782183427884
   6    0.0001269511361666
   7     0.023907007282706
   8     -0.04941681471965
   9    -0.0013748856484069
  10     0.029854251175247
  11    -0.0003666872687823
  12    5.4276613446199e-06
  13     0.040168099721154
  14     0.029623435104913
  15    0.00012489874163155
  16      0.01427630405296
  17    -0.011747534281159
  18    -0.023167221097724
  19    0.0046840178692493
  20    0.00087263164477533
  21    -0.013764672369322
  22    -0.0055932317436424
  23    0.0048876715637307
  24    1.2035101164912e-06
  25    -2.3798744758888e-05
  26    -0.0012981362216587
  27    -0.0045879690885034
  28     0.011409311601621
  29    2.788319029022e-05
  30    -0.0011728283561539
  31    -0.0026711070071877
  32    0.0027769285950136
  33    0.00080914995178028
  34    0.00071242880543512
  35    0.0073553732646431
  36    0.00073588395359936
  37    -0.00027906270928444
  38    -5.6911787060194e-05
  39    0.00050375774893714
  40    -0.00021266418433447
  41    0.00025785733849996
  42    0.00015501071468993
  43    -0.018037210007169
  44     -0.01993352137072
  45    5.3301659388986e-05
  46    0.0013287700029437
  47    -0.00065975996946699
  48     0.012801021561381
  49     0.027502013752758
  50    -0.00073500477417159
  51    -0.00031539444821981
  52    -0.00019685788584528
  53     0.012394343274637
  54     0.021094883371301
  55    0.0014353415600981
  56    -0.010102683460984
  57    -0.0019924756884271
  58    0.0040241022107993
  59     -0.15228382040841
  60     -0.12015987336697
  61     -0.15411320873912
  62      0.48132615015539
  63    -0.001383625076202
  64     -0.10157045674526
  65      0.31658411025525
  66    -0.00082220832747364
  67     0.010561376153302
  68    -4.0153243600172e-06
  69    -5.6281666981921e-05
  70     0.014764528067311
  71     0.010860177912593
  72     0.012535763333987
  73     0.019700032769926
  74    0.0012138692339498
  75    -0.010146454819862
  76    0.0020141861615012
 Sym= A
 Ene=              10
 Spin= Alpha
 Occup=    1.00000
   1    -0.006689795412788
   2    -0.036264478216281
   3    -0.031100725205008
   4       0.0169453395879
   5    -0.051280748554907
   6    0.00018879851112964
   7    -0.0036990328788865
   8    -0.0025868588886313
   9    -0.00069740521167881
  10    -0.0010720666552829
  11    -0.0004558145203262
  12    0.00056527072652014
  13    -0.0012799825165193
  14    -0.0018604386107235
  15    -0.00064750900968873
  16    -0.00027693761046647
  17    0.0067701213160798
  18    -0.0035829475368411
  19    -0.0023603465989766
  20    0.00066387681449496
  21     -0.01711798988618
  22    -0.0072648604304833
  23    0.0064462007378952
  24    0.00030600578886193
  25    0.00023094816577985
  26    -0.00011892591623562
  27    0.00040567509664511
  28    0.0030893662347959
  29    0.00039510156904939
  30    0.00050313547650996
  31    -0.0035253177297874
  32    0.00056178079326037
  33    0.00031455528360743
  34    -0.00017221762867091
  35    0.0031919782661084
  36    0.00075762766460933
  37    -2.1115743420896e-05
  38    -3.5387783717135e-05
  39    3.6396561695155e-05
  40    -1.2423235653937e-05
  41    1.5466728803897e-05
  42    8.5842937291938e-05
  43    -0.003253457634052
  44    -0.0043395801702867
  45    -0.00030040085485841
  46    0.00072688716456599
  47    -1.3609430981128e-05
  48    0.0018049139222164
  49      0.01834957599814
  50    -0.00048440814369739
  51    -0.00040187422469507
  52    0.00045567865420856
  53    0.00088088125473154
  54     0.012746012055471
  55     0.001367818596086
  56    -0.0022475668828487
  57    0.00088145065425311
  58    0.0058563629841666
  59      0.46871959243387
  60      0.55075551068689
  61    -0.089744715440784
  62      0.22471454102663
  63    0.0091162890109793
  64    -0.062711789103856
  65      0.15843104686754
  66    0.0062317603013398
  67     0.002408249778953
  68    4.1659941868175e-05
  69    -0.00021460534917969
  70    0.0033466207996676
  71    0.0027190786017217
  72    -0.00028017800448522
  73     0.010859562687086
  74    0.0011621625565789
  75    -0.0023069187144264
  76    -0.00080924409394512
 Sym= A
 Ene=              11
 Spin= Alpha
 Occup=    1.00000
   1    -0.00064749953928298
   2    -0.00027697582145469
   3    0.0067697965226176
   4    0.0035828659508438