[Molden Format]
made by pyscf v[2.0.1]
[Atoms] (AU)
C   1   6     0.00000000000000     0.00000000000000     0.00000000000000
C   2   6     2.85207482267819     0.00000000000000     0.00000000000000
F   3   9     3.65415199667903     0.00000000000000     2.45977207315200
H   4   1     3.58561868306314    -1.67891019462705    -0.93677358840720
H   5   1     3.58561868306314     1.67891019462705    -0.93677358840720
H   6   1    -0.73354386038494     1.67891019462705    -0.93677358840720
F   7   9    -0.80207717400084     0.00000000000000     2.45977207315200
H   8   1    -0.73354386038494    -1.67891019462705    -0.93677358840720
[GTO]
1 0
 s    8 1.00
                  6665  0.00069158396281299
                  1000  0.0053257961529341
                   228   0.027060721042034
                 64.71    0.10165684614077
                 21.06     0.2745748236174
                 7.495    0.44829431892377
                 2.797    0.28490261071525
                0.5215   0.015194859206082
 s    8 1.00
                  6665  -0.00029326965268655
                  1000  -0.0023180354739745
                   228  -0.011499786038565
                 64.71  -0.046826727009787
                 21.06   -0.12846616875047
                 7.495   -0.30126627246289
                 2.797   -0.25563070233011
                0.5215      1.093793361012
 s    1 1.00
                0.1596                   1
 p    3 1.00
                 9.439   0.056979251590039
                 2.002    0.31320721150073
                0.5456    0.76037674173753
 p    1 1.00
                0.1517                   1
 d    1 1.00
                  0.55                   1

2 0
 s    8 1.00
                  6665  0.00069158396281299
                  1000  0.0053257961529341
                   228   0.027060721042034
                 64.71    0.10165684614077
                 21.06     0.2745748236174
                 7.495    0.44829431892377
                 2.797    0.28490261071525
                0.5215   0.015194859206082
 s    8 1.00
                  6665  -0.00029326965268655
                  1000  -0.0023180354739745
                   228  -0.011499786038565
                 64.71  -0.046826727009787
                 21.06   -0.12846616875047
                 7.495   -0.30126627246289
                 2.797   -0.25563070233011
                0.5215      1.093793361012
 s    1 1.00
                0.1596                   1
 p    3 1.00
                 9.439   0.056979251590039
                 2.002    0.31320721150073
                0.5456    0.76037674173753
 p    1 1.00
                0.1517                   1
 d    1 1.00
                  0.55                   1

3 0
 s    8 1.00
                 14710  0.00072067370873197
                  2207  0.0055504869689163
                 502.8   0.028254207662589
                 142.6    0.10639582836653
                 46.47    0.28668420124307
                  16.7    0.44843796582416
                 6.356    0.26464118141135
                 1.316   0.015326060993048
 s    8 1.00
                 14710  -0.00032119389049893
                  2207  -0.0025461915683188
                 502.8  -0.012643359507821
                 142.6   -0.05195749170489
                 46.47   -0.14344713812646
                  16.7   -0.33243762329603
                 6.356   -0.21865906750347
                 1.316     1.0955904138622
 s    1 1.00
                0.3897                   1
 p    3 1.00
                 22.67   0.064834021493887
                 4.977    0.34053535983101
                 1.347    0.73464640679382
 p    1 1.00
                0.3471                   1
 d    1 1.00
                  1.64                   1

4 0
 s    3 1.00
                 13.01   0.033498726389998
                 1.962    0.23480080117413
                0.4446     0.8136829578829
 s    1 1.00
                 0.122                   1
 p    1 1.00
                 0.727                   1

5 0
 s    3 1.00
                 13.01   0.033498726389998
                 1.962    0.23480080117413
                0.4446     0.8136829578829
 s    1 1.00
                 0.122                   1
 p    1 1.00
                 0.727                   1

6 0
 s    3 1.00
                 13.01   0.033498726389998
                 1.962    0.23480080117413
                0.4446     0.8136829578829
 s    1 1.00
                 0.122                   1
 p    1 1.00
                 0.727                   1

7 0
 s    8 1.00
                 14710  0.00072067370873197
                  2207  0.0055504869689163
                 502.8   0.028254207662589
                 142.6    0.10639582836653
                 46.47    0.28668420124307
                  16.7    0.44843796582416
                 6.356    0.26464118141135
                 1.316   0.015326060993048
 s    8 1.00
                 14710  -0.00032119389049893
                  2207  -0.0025461915683188
                 502.8  -0.012643359507821
                 142.6   -0.05195749170489
                 46.47   -0.14344713812646
                  16.7   -0.33243762329603
                 6.356   -0.21865906750347
                 1.316     1.0955904138622
 s    1 1.00
                0.3897                   1
 p    3 1.00
                 22.67   0.064834021493887
                 4.977    0.34053535983101
                 1.347    0.73464640679382
 p    1 1.00
                0.3471                   1
 d    1 1.00
                  1.64                   1

8 0
 s    3 1.00
                 13.01   0.033498726389998
                 1.962    0.23480080117413
                0.4446     0.8136829578829
 s    1 1.00
                 0.122                   1
 p    1 1.00
                 0.727                   1

[5d]
[7f]
[9g]

[MO]
 Sym= A
 Ene=               0
 Spin= Alpha
 Occup=    1.00000
   1       1.0022364155542
   2    -0.00081381572066205
   3    -0.011526076779343
   4    0.00059380372388278
   5    -5.5566604040237e-17
   6    0.0022959476871855
   7    -0.00080686521830252
   8    -1.8671641548547e-15
   9    0.0013194099302912
  10    7.3408506953016e-05
  11    1.1640538735456e-05
  12    -2.0554602861015e-15
  13    -0.00011414433836309
  14    6.9570305386536e-16
  15    -0.00012694749129515
  16    -0.00065225581157763
  17    0.0025063020700388
  18    0.0011490038370496
  19    3.180804970377e-16
  20    -5.7054803228409e-05
  21    -0.00075805320365741
  22    6.8795985928609e-16
  23    -0.0001675431012285
  24    0.00020507205776865
  25    4.4716058544488e-05
  26    4.2633877960163e-16
  27    -0.00032125903453117
  28    8.555975959875e-17
  29    -4.0817771692598e-05
  30    -6.1753307860807e-05
  31    1.7408672665443e-05
  32    -0.00010312878214888
  33    9.7522820916028e-15
  34    2.9255798099857e-05
  35    -0.00032261948252606
  36    6.6459612876385e-15
  37    8.6637568866829e-05
  38    -2.1898851878139e-05
  39    -1.2291559627792e-08
  40    -1.8333476995119e-16
  41    3.0077927083876e-05
  42    -2.4821731685372e-17
  43    8.4606479211832e-05
  44    0.00019244455080501
  45    -3.1904823068715e-05
  46    3.478524017701e-05
  47    1.0737230876806e-05
  48    8.4606479210643e-05
  49    0.00019244455080366
  50    -3.1904823068947e-05
  51    -3.4785240177067e-05
  52    1.073723087679e-05
  53    -0.0030993334741621
  54    0.00080120490565091
  55    -0.00011335690423172
  56    0.00053440330799487
  57    -0.00033282354436249
  58    0.00013935524432529
  59    1.0884066502415e-05
  60    -0.00024447185920146
  61    -0.00037968342624144
  62    -4.1175183676906e-14
  63    0.00093890047976468
  64    -0.00048789891943057
  65    -2.9079551957101e-14
  66    0.0014291211942706
  67    -0.00030103089376864
  68    0.00015733824463218
  69    7.5957712506687e-16
  70    -2.4375828998181e-05
  71    -2.5574935708263e-16
  72    -0.0030993334741692
  73    0.00080120490564431
  74    -0.00011335690423173
  75    -0.00053440330799522
  76    -0.00033282354436281
 Sym= A
 Ene=               1
 Spin= Alpha
 Occup=    1.00000
   1    -0.00012694393052795
   2    -0.00065224455733196
   3    0.0025063091662226
   4    -0.0011489872751991
   5    -3.2330692229707e-16
   6    -5.7047970128482e-05
   7    0.00075806069851628
   8    -2.4353772898354e-15
   9    -0.00016754218264299
  10    0.00020507248048198
  11    -4.4716199148038e-05
  12    1.7250618683389e-16
  13    -0.00032125789617459
  14    -8.267906795463e-16
  15       1.0022364156442
  16    -0.00081381387732372
  17    -0.011526074613274
  18    -0.00059382278650292
  19    -7.8858926706969e-15
  20    0.0022959488846014
  21    0.00080685912039097
  22    8.041943639238e-15
  23    0.0013194115158262
  24    7.3406984021141e-05
  25    -1.1640470733244e-05
  26    9.2281095053793e-15
  27    -0.00011414267897199
  28    1.8932262166223e-15
  29    0.0001393585011174
  30    1.0881850881256e-05
  31    -0.00024447481721567
  32    0.00037969619637175
  33    1.6695204929893e-13
  34    0.00093890300575699
  35    0.00048790935837686
  36    1.1796002376233e-13
  37    0.0014291226514749
  38    -0.00030103111915268
  39    -0.00015733832579937
  40    -2.9320820265385e-15
  41    -2.4375792931393e-05
  42    -1.0095738185522e-15
  43    -0.0030993395380443
  44    0.00080120206195294
  45    0.00011335663248498
  46    -0.00053440378156499
  47    -0.00033282374749213
  48    -0.0030993395380814
  49    0.00080120206191693
  50    0.00011335663248589
  51    0.00053440378156523
  52    -0.00033282374749361
  53    8.4604085360233e-05
  54    0.0001924419448264
  55    3.1905213298696e-05
  56    -3.4785133861382e-05
  57    1.0737532189211e-05
  58    -4.0818052625926e-05
  59    -6.1751262840885e-05
  60    1.7409502165782e-05
  61    0.00010313800391217
  62    -3.604976214778e-15
  63    2.9250611130024e-05
  64    0.0003226243170476
  65    -1.3336797885863e-15
  66    8.6634148412698e-05
  67    -2.1898651456404e-05
  68    1.1731959543029e-08
  69    4.9698731711903e-17
  70    3.0078045971938e-05
  71    1.2883329358448e-16
  72    8.4604085358587e-05
  73    0.00019244194482324
  74    3.1905213299458e-05
  75    3.4785133861643e-05
  76    1.0737532189191e-05
 Sym= A
 Ene=               2
 Spin= Alpha
 Occup=    1.00000
   1    4.1504778280462e-05
   2    4.0228951856336e-05
   3    -0.001324919921185
   4    -0.00010899897770644
   5    2.3765321428985e-16
   6    4.0077661840961e-06
   7    -0.00060283143753279
   8    1.3600803159931e-15
   9    -0.00040172865660322
  10    8.2599390536555e-05
  11    -3.3332203885839e-05
  12    -1.5515165288678e-15
  13    1.2471700051308e-05
  14    5.9387641139638e-16
  15    -6.6947572835913e-05
  16    -4.6696456034248e-07
  17     0.003350634723745
  18    0.00022294372604325
  19    -7.0479130609619e-15
  20    0.00048483592310685
  21    -0.00015641154544413
  22    -2.2453672475767e-14
  23    0.0012995595440538
  24    -1.6174951264353e-05
  25    -2.5567063445918e-05
  26    -2.2029017787954e-14
  27    -1.0211038761703e-05
  28    -5.3997191631043e-15
  29       1.0009681599455
  30    -0.0035295440335337
  31     -0.01012745577217
  32    -0.001038349471653
  33    -4.1002878310457e-13
  34    -0.0024644372755742
  35    -9.5836578651212e-05
  36    -2.8921594611908e-13
  37    0.00029922976367764
  38    -0.00016356737223057
  39    -9.3545296343525e-05
  40    7.6591591269448e-15
  41    -5.0266183478602e-06
  42    2.6126397668774e-15
  43    -0.0002805806073856
  44    -0.00019111024356678
  45    1.0438251420391e-05
  46    -2.5722037546568e-05
  47    -0.00016627968167972
  48    -0.00028058060733381
  49    -0.00019111024350428
  50    1.043825142027e-05
  51    2.5722037548084e-05
  52    -0.00016627968167825
  53    9.8931505520529e-05
  54    -8.0363306058033e-06
  55    3.2208736663523e-05
  56    1.8324016279644e-06
  57    5.7929444318613e-05
  58    -5.0361292207986e-05
  59    -9.8577655620635e-05
  60    0.00028094985048915
  61    -1.7378496582788e-05
  62    -1.1726445774222e-14
  63    4.1850072883267e-05
  64    6.2263268518956e-05
  65    -1.0606039487133e-14
  66    -6.6651112730469e-05
  67    -4.636131534617e-07
  68    1.0692709974093e-06
  69    2.2991440700508e-16
  70    -1.4071373136992e-05
  71    -4.7059389713626e-16
  72    9.8931505518932e-05
  73    -8.0363306088816e-06
  74    3.2208736661537e-05
  75    -1.8324016283027e-06
  76    5.7929444318427e-05
 Sym= A
 Ene=               3
 Spin= Alpha
 Occup=    1.00000
   1    -6.6992398743466e-05
   2    -6.9334838469714e-07
   3    0.0033504857676359
   4    -0.0002228126607185
   5    9.4684200632495e-16
   6    0.0004845629999964
   7    0.00015645290734842
   8    1.4723121890679e-15
   9    0.0012995409622692
  10    -1.6151293169669e-05
  11    2.5555888341547e-05
  12    1.9009909845097e-15
  13    -1.0207628034665e-05
  14    -6.1268626578843e-16
  15    4.1498415863322e-05
  16    4.0238191863049e-05
  17    -0.0013248502045009
  18    0.00010897825272175
  19    -1.7702824438106e-16
  20    3.9456095108677e-06
  21    0.00060280196158924
  22    5.3827256303685e-16
  23    -0.00040175629037973
  24    8.2596788289567e-05
  25    3.3353951991556e-05
  26    6.862745845079e-16
  27    1.2472836840459e-05
  28    1.4858041361301e-16
  29    -5.0362760672952e-05
  30    -9.8595404756048e-05
  31    0.00028095424117127
  32    1.7437434049416e-05
  33    1.1589809053918e-14
  34    4.1851184605512e-05
  35    -6.2236417610481e-05
  36    8.3537738666632e-15
  37    -6.6637725929661e-05
  38    -4.6598853396268e-07
  39    -1.0721790288784e-06
  40    -2.1103823120133e-16
  41    -1.4069703182966e-05
  42    -1.0452960482866e-16
  43    9.8942271204968e-05
  44    -8.0513490997509e-06
  45    -3.2212199068648e-05
  46    -1.8285864018815e-06
  47    5.7929520039339e-05
  48    9.8942271202913e-05
  49    -8.0513491020728e-06
  50    -3.2212199068459e-05
  51    1.8285864018814e-06
  52    5.7929520039263e-05
  53    -0.0002805990050583
  54    -0.00019102999227047
  55    -1.0430907079426e-05
  56    2.5717922585772e-05
  57    -0.00016629218372248
  58       1.0009681946329
  59    -0.0035264680014181
  60    -0.010123849500081
  61    0.0010379633549602
  62    3.2391768878768e-14
  63    -0.0024630204674827
  64    9.5556352609793e-05
  65    2.2945454892289e-14
  66    0.00030022211363946
  67    -0.0001635935219085
  68    9.3556745669853e-05
  69    -6.1469318388712e-16
  70    -5.0286409960659e-06
  71    2.1759841897467e-16
  72    -0.00028059900505495
  73    -0.00019102999226642
  74    -1.043090707944e-05
  75    -2.5717922585954e-05
  76    -0.00016629218372242
 Sym= A
 Ene=               4
 Spin= Alpha
 Occup=    1.00000
   1    2.0213362371844e-12
   2    2.7967584727295e-12
   3    -2.8484601747099e-11
   4    -1.3115741067822e-11
   5    0.0096274881859399
   6    -1.157256161536e-12
   7    -4.8141200724805e-11
   8      0.03605416009672
   9    1.2677540984132e-11
  10    -1.5388326993941e-11
  11    -2.7298978123777e-11
  12     0.035880069303366
  13    1.2251885203641e-11
  14    -0.0086778172376476
  15    4.0970141146412e-13
  16    2.0586170602771e-11
  17    7.4320197587119e-11
  18    -3.7990397927173e-11
  19    -0.00093295132567793
  20    3.3022382542692e-12
  21    -5.1697696150471e-11
  22    -0.0036676391315402
  23    -1.5295756779218e-11
  24    -1.0266301580438e-12
  25    -1.8572291149436e-12
  26    0.00087253789274206
  27    3.8975830702377e-13
  28    0.0010063072565735
  29    8.6951070835908e-13
  30    8.9833731269001e-12
  31    1.1869920859713e-11
  32    -1.3227051451556e-11
  33    -0.0055354949257608
  34    1.6823838429187e-12
  35    -2.1609191412111e-12
  36    -7.2472408512887e-05
  37    -3.4496872326253e-12
  38    1.215285881377e-12
  39    1.2918200531984e-12
  40    8.1203199198803e-05
  41    -1.3810813619751e-12
  42    -0.0006074891475812
  43    -0.00016820926397347
  44    0.00051375408464894
  45    -0.0016155710708196
  46    0.00033155471671187
  47    0.0001179739309451
  48    0.00016820925249412
  49    -0.00051375410315725
  50    0.0016155710674429
  51    0.00033155471899027
  52    -0.00011797392898408
  53     -0.04340530030471
  54    -0.051394989630541
  55    -0.0001056766855068
  56    -0.0011911158202567
  57    -0.0012478833584615
  58    1.0433827014578e-12
  59    5.5107891219978e-13
  60    -1.0707528807719e-11
  61    -5.788893990157e-10
  62       0.6668504733996
  63    -1.9107344732697e-10
  64    -4.0696755972133e-10
  65      0.47030781704833
  66    -1.3003567103097e-10
  67    6.0488978345281e-12
  68    1.0062477817037e-11
  69    -0.012420168256359
  70    -3.1364000765917e-12
  71    0.0042137625161999
  72     0.043405300265458
  73     0.051394989586211
  74    0.00010567668887883
  75    -0.0011911158193401
  76    0.0012478833564291
 Sym= A
 Ene=               5
 Spin= Alpha
 Occup=    1.00000
   1    3.2766257397868e-13
   2    1.2831252183535e-11
   3    4.1333481271496e-11
   4    2.2595089037095e-11
   5    -0.00093295089763204
   6    2.1514440974771e-12
   7    2.9191619455515e-11
   8    -0.0036676303981106
   9    -8.486103975467e-12
  10    -5.134061476528e-13
  11    1.2522149574869e-12
  12    0.00087254745576346
  13     1.94892082059e-13
  14    -0.0010063092832068
  15    2.0216526861198e-12
  16    4.1703459109388e-12
  17    -1.0983740707935e-11
  18    7.8440028038533e-12
  19    0.0096274916254624
  20    -4.0657730599653e-12
  21    2.771738632437e-11
  22     0.036054160464559
  23    5.6514807876446e-12
  24    -1.1229438252351e-11
  25    1.4528433546361e-11
  26      0.03588006935433
  27    6.8129458916811e-12
  28    0.0086778177428904
  29    4.5290931887248e-13
  30    -8.5921509985449e-11
  31    -1.0526104168016e-10
  32    3.2897835517877e-10
  33      0.66685047169404
  34    -1.3165701204903e-10
  35    2.3084512767889e-10
  36      0.47030781663656
  37    -9.0693129992513e-11
  38    3.5895125735283e-12
  39    -5.8606900513243e-12
  40    -0.012420168287987
  41    -1.81833281344e-12
  42    -0.0042137626870207
  43      0.04340529738904
  44     0.051394988462947
  45    -0.00010567700378687
  46    -0.0011911158276767
  47    0.0012478832947422
  48    -0.043405297407622
  49     -0.05139498849088
  50    0.00010567700203342
  51    -0.0011911158281123
  52    -0.0012478832958373
  53    0.00016819603014229
  54    -0.00051376857144463
  55    -0.0016155711573153
  56    0.00033155445250689
  57    -0.00011797430996454
  58    5.5347256950709e-13
  59    5.8676384015892e-12
  60    7.2313351181382e-12
  61    8.2397233163113e-12
  62    -0.0055353188848717
  63    1.5570242281466e-12
  64    1.4018974287503e-12
  65    -7.2348143906638e-05
  66    -1.8528342646098e-12
  67    7.3844464418779e-13
  68    -7.9658522834036e-13
  69    8.1199954522984e-05
  70    -8.5965129096272e-13
  71    0.00060749025431544
  72    -0.00016819603621671
  73    0.00051376856111365
  74    0.0016155711592797
  75    0.00033155445118133
  76    0.00011797431120381
 Sym= A
 Ene=               6
 Spin= Alpha
 Occup=    1.00000
   1    -0.0024012169427872
   2    -0.0036323391704742
   3     0.029864503195812
   4     0.014385815686337
   5    8.8097747167004e-12
   6    0.0020635262861286
   7     0.052604722517702
   8    3.2922090007219e-11
   9     -0.01347646739969
  10      0.01736479456622
  11      0.02955970984379
  12    3.2747845595994e-11
  13    -0.013335101613979
  14    -7.9213425930611e-12
  15    -0.00047225153739675
  16    -0.022752784112083
  17    -0.080895938395446
  18     0.041685027430587
  19    -8.3393767104551e-13
  20    -0.0036250537805151
  21     0.056361109048185
  22    -3.3386254298878e-12
  23     0.016658869542856
  24    0.0011106074416613
  25    0.0020771241227623
  26    8.0075210291859e-13
  27    -0.00041606597564946
  28    9.1979472686257e-13
  29    -0.00094277636529896
  30    -0.0098126326666145
  31    -0.012881807152485
  32     0.014633584291054
  33    -4.9522380616809e-12
  34    -0.0019759487178953
  35    0.0024244466642706
  36    3.6922861516773e-15
  37    0.0037403229898866
  38    -0.0013361963476826
  39    -0.0014238451293471
  40    7.2007056729525e-14
  41    0.0015240597708996
  42    -5.5519786740452e-13
  43     0.006181131962991
  44     0.010068967269743
  45    0.0018482831832346
  46    0.0012441955972115
  47    -0.0010853683402568
  48    0.0061811319633056
  49     0.010068967268799
  50     0.001848283186183
  51    -0.0012441955966071
  52    -0.0010853683404717
  53     0.020990715086085
  54     0.024504950292922
  55    -0.0018205473915283
  56    0.00048941972770198
  57    0.0011032469504592
  58    -0.0010129395975359
  59      0.01920724361512
  60     0.034466208337044
  61      0.63165824131982
  62    6.086663781088e-10
  63      0.21375459130097
  64      0.44396622066465
  65    4.2927095152872e-10
  66      0.14572197776346
  67    -0.0066337774727378
  68    -0.011012913797538
  69    -1.133678806951e-11
  70    0.0034305577880692
  71    3.8463325889769e-12
  72     0.020990715165291
  73     0.024504950386745
  74    -0.001820547391336
  75    -0.00048941972987677
  76     0.001103246952737
 Sym= A
 Ene=               7
 Spin= Alpha
 Occup=    1.00000
   1    0.00047222138695228
   2     0.022752575555431
   3     0.080895903993576
   4     0.041685126872618
   5    5.4532031224794e-13
   6     0.003625204876914
   7     0.056361190089365
   8    1.9829658827793e-12
   9    -0.016658830117979
  10    -0.0011105823206879
  11     0.002077040296633
  12    -4.7089046790208e-13
  13    0.00041608652830225
  14    5.4871922450593e-13
  15    0.0024011122350028
  16    0.0036319687167188
  17     -0.02986469906209
  18     0.014385669080841
  19    -4.9602752378296e-12
  20    -0.0020641911945711
  21     0.052604683945748
  22    -1.9272008353144e-11
  23     0.013476378126475
  24    -0.017364769736433
  25     0.029559734482743
  26    -1.9255659457477e-11
  27     0.013335101120779
  28    -4.6502521911078e-12
  29    0.0010126408783885
  30    -0.019201270074072
  31    -0.034459196415121
  32      0.63165947468383
  33    -3.5770818446113e-10
  34     -0.21375186889532
  35      0.44396710005901
  36    -2.5229254930307e-10
  37     -0.14572007117978
  38    0.0066337299942271
  39    -0.011012946587194
  40    6.6592419523262e-12
  41    -0.0034305652686084
  42    2.259604061473e-12
  43    -0.020990647986563
  44    -0.024504778287247
  45    -0.0018205654736695
  46    0.00048943730185958
  47    -0.0011032711096806
  48    -0.020990647939703
  49    -0.024504778231985
  50    -0.0018205654737957
  51    -0.00048943730059355
  52    -0.0011032711083305
  53    -0.0061813608667587
  54    -0.010069060634306
  55    0.0018482849352945
  56    0.0012442090778586
  57    0.0010853649426804
  58    0.00094273782963374
  59     0.009813175295231
  60     0.012882459809584
  61     0.014633194846434
  62    2.9648630430652e-12
  63    0.0019757881901955
  64    0.0024241900321646
  65    3.1642224924238e-14
  66    -0.0037404082828733
  67    0.0013361982779581
  68    -0.0014238388152337
  69    -4.4049607656591e-14
  70    -0.0015240583209794
  71    -3.2562013761686e-13
  72    -0.0061813608666214
  73    -0.010069060634852
  74    0.0018482849335582
  75    -0.0012442090782179
  76    0.0010853649425512
 Sym= A
 Ene=               8
 Spin= Alpha
 Occup=    1.00000
   1    -0.0031463005142095
   2     -0.15534017866884
   3     0.013247899077134
   4     0.096012071810182
   5    -2.5557744929275e-15
   6     -0.29103293518859
   7     0.033977924699278
   8    2.618626495225e-13
   9    -0.053392763180103
  10    -0.049801323821626
  11     0.028319334433581
  12    2.8685437403814e-13
  13    -0.0054265679345995
  14    -6.6893591307798e-14
  15    -0.00092642525886788
  16    0.0088865541937003
  17    -0.011805292852088
  18    -0.027594406984054
  19    -3.0115655194705e-14
  20    -0.0048500469424053
  21    -0.0035039538743611
  22    -4.0159949524947e-14
  23    -0.0025075713995038
  24    0.0059344234133969
  25     0.012027335326829
  26    7.0285604041938e-15
  27    -0.0015781628867939
  28    1.0867125556553e-14
  29    -0.00041858824324662
  30    0.0037950419996748
  31    0.0095916322072051
  32    -0.0055041809492871
  33    -6.4154547915083e-14
  34    -0.0096028449431767
  35    -0.0070458404315965
  36    -1.2856628350174e-14
  37    -0.0048457103695203
  38    -0.00018898817383741
  39    0.00021881260514328
  40     1.33245951197e-15
  41    -0.00029470395734777
  42    -4.5462862421354e-15
  43    -0.0069805917034952
  44    -0.011430854186405
  45    -0.0017754810182444
  46    0.00032351477740894
  47    0.0015051283431827
  48    -0.0069805917035132
  49    -0.011430854186409
  50    -0.0017754810182174
  51    -0.00032351477740203
  52    0.0015051283431797
  53     0.010602013154407
  54     0.022447691595424
  55    0.0013553544074928
  56    0.0019450801552028
  57    -0.010145205699358
  58    0.0040233104832937
  59     -0.14901713128227
  60     -0.11332682404775
  61     -0.15452088794735
  62    5.2674448351108e-12
  63      0.47886468699426
  64     -0.10281251114395
  65    3.7193859530243e-12
  66      0.31388920735852
  67     -0.01835470226987
  68     0.010843021364909
  69    -9.6862555201986e-14
  70    -0.0017323930958837
  71    3.2958948045564e-14
  72     0.010602013155205
  73      0.02244769159629
  74    0.0013553544074997
  75    -0.0019450801552169
  76    -0.010145205699333
 Sym= A
 Ene=               9
 Spin= Alpha
 Occup=    1.00000
   1    -0.00092644218898397
   2    0.0088864891953766
   3    -0.011805209999698
   4     0.027594630759995
   5    4.8933011166987e-14
   6    -0.0048502619611078
   7    0.0035040650934785
   8    1.1726978496548e-13
   9    -0.002507621559425
  10    0.0059343863494755
  11    -0.012027295602219
  12    -2.4681604319459e-14
  13    -0.0015781667526889
  14    5.0402449295068e-14
  15     -0.00314631138234
  16     -0.15534027826652
  17     0.013247799314106
  18    -0.096012287117448
  19    6.4762372979625e-14
  20     -0.29103281527423
  21    -0.033977977101703
  22    -1.0259477033233e-12
  23    -0.053392705948077
  24    -0.049801321316083
  25    -0.028319315385947
  26    -1.193941714569e-12
  27    -0.005426550877137
  28    -2.7059588202745e-13
  29    0.0040231558205895
  30     -0.14901713792207
  31     -0.11332683497943
  32      0.15452098053329
  33    -2.1852640092092e-11
  34      0.47886463068726
  35      0.10281258686773
  36    -1.5437872328151e-11
  37      0.31388916665588
  38    -0.018354704343585
  39    -0.010843020889911
  40    4.0125257481663e-13
  41    -0.0017323921016618
  42    1.3665168078907e-13
  43     0.010601841546146
  44     0.022447632062088
  45    -0.0013553542834548
  46    -0.0019450945204423
  47    -0.010145208697677
  48     0.010601841549547
  49     0.022447632065645
  50    -0.0013553542834835
  51    0.0019450945205001
  52    -0.010145208697577
  53    -0.0069805970596279
  54    -0.011430846378759
  55    0.0017754846458131
  56    -0.00032351101099107
  57    0.0015051212111517
  58    -0.00041865178883415
  59    0.0037949219690336
  60    0.0095915412935609
  61    0.0055043052848877
  62    2.704197171365e-13
  63    -0.0096023572420036
  64    0.0070459186521394
  65    6.2934795182397e-14
  66    -0.0048453899010911
  67    -0.00018900624832354
  68    -0.0002188103275218
  69    -4.4314779131845e-15
  70    -0.00029470349512732
  71    -1.9050799949042e-14
  72    -0.0069805970595868
  73    -0.011430846378748
  74    0.0017754846457051
  75    0.00032351101096559
  76     0.001505121211142
 Sym= A
 Ene=              10
 Spin= Alpha
 Occup=    1.00000
   1    -0.0010143261524218
   2    -0.0010623436753431
   3     0.011551492728273
   4    0.0049800813170775
   5    -1.3397393522283e-13
   6    -0.0037922825188156
   7     0.007589075506616
   8    -5.6712559837909e-13
   9    -0.0035536850187501
  10    0.00049069164321061
  11    -0.0038292966165235
  12    1.2599484319498e-13
  13    0.00019525975063754
  14    -1.4922348606366e-13
  15    -0.0072946114416128
  16    -0.037108822637702
  17    -0.023742262981117
  18    -0.017328986697532
  19    1.4695755991888e-12
  20    -0.051222829172322
  21    -0.0024894377800414
  22    5.4458522877992e-12
  23    -0.004248866023066
  24     0.001506332495981
  25    0.0024110538857786
  26    5.3842877952732e-12
  27    0.00073704375816706
  28    1.3041972721272e-12
  29    0.0054816471977406
  30      0.47036668193294
  31      0.55229172155994
  32     0.099132219962413
  33    1.0012557347372e-10
  34      0.21876650383857
  35     0.070635198710491
  36    7.0610235954337e-11
  37      0.15301594345162
  38    -0.004072391419037
  39    -0.0026994775166806
  40    -1.8651134619024e-12
  41    -0.00055268825699729
  42    -6.3264612694508e-13
  43    -0.00082031800670036
  44      0.01258838165432
  45    -0.0012575933027384
  46    0.00086303861562521
  47    -0.0021956222091938
  48    -0.00082031801970262
  49      0.01258838163886
  50    -0.0012575933027068
  51    -0.00086303861598231
  52    -0.0021956222095698
  53    -0.0025091831419442
  54    -0.0038398527968395
  55    0.00048795103580227
  56    -0.00017740442938469
  57    9.227194045453e-05
  58    -0.00048689130968143
  59    -0.00092203814779191
  60    0.0025667669515898
  61    -0.0024317989084516
  62    -9.2878861317857e-13
  63    -0.0045763896328999
  64    0.00020463784958796
  65    -7.8897048056952e-14
  66    -0.001423561805858
  67    -0.00018728987703882
  68    0.00020161316478074
  69    1.3871032244966e-14
  70    0.00020467526345875
  71    9.063614892698e-14
  72    -0.0025091831420174
  73    -0.0038398527967191
  74    0.00048795103628626
  75    0.00017740442948369
  76    9.2271940488255e-05
 Sym= A
 Ene=              11
 Spin= Alpha
 Occup=    1.00000
   1    -0.0072945815079397