[Molden Format]
made by pyscf v[2.0.1]
[Atoms] (AU)
C   1   6     0.00000000000000     0.00000000000000     0.00000000000000
C   2   6     2.85207482267819     0.00000000000000     0.00000000000000
F   3   9     3.65415199667903     0.00000000000000     2.45977207315200
H   4   1     3.58561868306314    -1.67891019462705    -0.93677358840720
H   5   1     3.58561868306314     1.67891019462705    -0.93677358840720
H   6   1    -0.73354386038494    -1.67891019462705     0.93677358840720
F   7   9    -0.80207717400084     0.00000000000000    -2.45977207315200
H   8   1    -0.73354386038494     1.67891019462705     0.93677358840720
[GTO]
1 0
 s    8 1.00
                  6665  0.00069158396281299
                  1000  0.0053257961529341
                   228   0.027060721042034
                 64.71    0.10165684614077
                 21.06     0.2745748236174
                 7.495    0.44829431892377
                 2.797    0.28490261071525
                0.5215   0.015194859206082
 s    8 1.00
                  6665  -0.00029326965268655
                  1000  -0.0023180354739745
                   228  -0.011499786038565
                 64.71  -0.046826727009787
                 21.06   -0.12846616875047
                 7.495   -0.30126627246289
                 2.797   -0.25563070233011
                0.5215      1.093793361012
 s    1 1.00
                0.1596                   1
 p    3 1.00
                 9.439   0.056979251590039
                 2.002    0.31320721150073
                0.5456    0.76037674173753
 p    1 1.00
                0.1517                   1
 d    1 1.00
                  0.55                   1

2 0
 s    8 1.00
                  6665  0.00069158396281299
                  1000  0.0053257961529341
                   228   0.027060721042034
                 64.71    0.10165684614077
                 21.06     0.2745748236174
                 7.495    0.44829431892377
                 2.797    0.28490261071525
                0.5215   0.015194859206082
 s    8 1.00
                  6665  -0.00029326965268655
                  1000  -0.0023180354739745
                   228  -0.011499786038565
                 64.71  -0.046826727009787
                 21.06   -0.12846616875047
                 7.495   -0.30126627246289
                 2.797   -0.25563070233011
                0.5215      1.093793361012
 s    1 1.00
                0.1596                   1
 p    3 1.00
                 9.439   0.056979251590039
                 2.002    0.31320721150073
                0.5456    0.76037674173753
 p    1 1.00
                0.1517                   1
 d    1 1.00
                  0.55                   1

3 0
 s    8 1.00
                 14710  0.00072067370873197
                  2207  0.0055504869689163
                 502.8   0.028254207662589
                 142.6    0.10639582836653
                 46.47    0.28668420124307
                  16.7    0.44843796582416
                 6.356    0.26464118141135
                 1.316   0.015326060993048
 s    8 1.00
                 14710  -0.00032119389049893
                  2207  -0.0025461915683188
                 502.8  -0.012643359507821
                 142.6   -0.05195749170489
                 46.47   -0.14344713812646
                  16.7   -0.33243762329603
                 6.356   -0.21865906750347
                 1.316     1.0955904138622
 s    1 1.00
                0.3897                   1
 p    3 1.00
                 22.67   0.064834021493887
                 4.977    0.34053535983101
                 1.347    0.73464640679382
 p    1 1.00
                0.3471                   1
 d    1 1.00
                  1.64                   1

4 0
 s    3 1.00
                 13.01   0.033498726389998
                 1.962    0.23480080117413
                0.4446     0.8136829578829
 s    1 1.00
                 0.122                   1
 p    1 1.00
                 0.727                   1

5 0
 s    3 1.00
                 13.01   0.033498726389998
                 1.962    0.23480080117413
                0.4446     0.8136829578829
 s    1 1.00
                 0.122                   1
 p    1 1.00
                 0.727                   1

6 0
 s    3 1.00
                 13.01   0.033498726389998
                 1.962    0.23480080117413
                0.4446     0.8136829578829
 s    1 1.00
                 0.122                   1
 p    1 1.00
                 0.727                   1

7 0
 s    8 1.00
                 14710  0.00072067370873197
                  2207  0.0055504869689163
                 502.8   0.028254207662589
                 142.6    0.10639582836653
                 46.47    0.28668420124307
                  16.7    0.44843796582416
                 6.356    0.26464118141135
                 1.316   0.015326060993048
 s    8 1.00
                 14710  -0.00032119389049893
                  2207  -0.0025461915683188
                 502.8  -0.012643359507821
                 142.6   -0.05195749170489
                 46.47   -0.14344713812646
                  16.7   -0.33243762329603
                 6.356   -0.21865906750347
                 1.316     1.0955904138622
 s    1 1.00
                0.3897                   1
 p    3 1.00
                 22.67   0.064834021493887
                 4.977    0.34053535983101
                 1.347    0.73464640679382
 p    1 1.00
                0.3471                   1
 d    1 1.00
                  1.64                   1

8 0
 s    3 1.00
                 13.01   0.033498726389998
                 1.962    0.23480080117413
                0.4446     0.8136829578829
 s    1 1.00
                 0.122                   1
 p    1 1.00
                 0.727                   1

[5d]
[7f]
[9g]

[MO]
 Sym= A
 Ene=               0
 Spin= Alpha
 Occup=    1.00000
   1    -0.00017562372242789
   2    -0.0017077313206651
   3    0.0017500882696277
   4    0.0003273424165554
   5    4.1238175789631e-16
   6    -0.00088173013592441
   7    0.0013560332587402
   8    -9.7156324572682e-16
   9    -0.00056031849801668
  10    0.00019611489468974
  11    0.00010674791997485
  12    6.5370268176805e-17
  13    -0.00014228921580869
  14    -3.5895835699594e-16
  15       1.0022534771401
  16    6.5115078353585e-05
  17    -0.010944014011689
  18    -0.0010426276679292
  19    -4.7348013045077e-15
  20    0.0033312449086034
  21    0.00059300746423584
  22    9.7674799459018e-16
  23    0.0015235125778373
  24    0.00015876749598739
  25    0.00015671462990537
  26    1.6357181961328e-16
  27    -4.9248075072348e-05
  28    -9.1301938404849e-17
  29    5.737622592393e-05
  30    -0.0028792657959368
  31    -0.003936321559378
  32    0.00098963088525567
  33    1.8539664311801e-15
  34    -0.0019951610229944
  35    0.00097813572012081
  36    1.1276528673963e-15
  37    -0.00051756437607441
  38    -0.00023891467818069
  39    -0.00013617434083179
  40    6.3745801046231e-17
  41    -2.5212327061833e-05
  42    1.4648331663284e-17
  43    -0.0032455008032392
  44    0.0004586369830603
  45    8.5192217242095e-05
  46    -0.00052012994302813
  47    -0.00030798610413065
  48    -0.0032455008032464
  49    0.00045863698305359
  50    8.5192217242522e-05
  51    0.00052012994302833
  52    -0.00030798610413117
  53    -0.0014241310600603
  54    -0.00024967645720058
  55    4.2216759105041e-05
  56    -0.00010986706218557
  57    3.6222375706351e-05
  58    1.1475749166258e-05
  59    -0.00012194598240009
  60    -7.3886721693555e-05
  61    -0.00081896637872444
  62    -2.7310075259123e-16
  63    0.00071976852740711
  64    -0.00042201853615647
  65    2.8975344118699e-17
  66    0.00051409272087317
  67    -7.6449765734562e-06
  68    -8.1197622633322e-06
  69    1.2495668578956e-17
  70    2.3866765027208e-05
  71    -4.3136001164785e-18
  72    -0.0014241310600588
  73    -0.00024967645719849
  74    4.2216759105045e-05
  75    0.00010986706218563
  76    3.6222375706272e-05
 Sym= A
 Ene=               1
 Spin= Alpha
 Occup=    1.00000
   1       1.0022534617529
   2    6.481583555254e-05
   3    -0.010943707513747
   4    0.0010426850437672
   5    1.221475444003e-15
   6    -0.0033313994643047
   7    -0.00059276985718998
   8    -4.7204016734772e-16
   9    -0.0015236107851937
  10    0.00015880186341279
  11    0.00015673333762711
  12    -1.1325842211206e-16
  13    -4.9273009004341e-05
  14    2.8777842924172e-16
  15                     0
  16    -0.0017077199368445
  17    0.0017481705894925
  18    -0.00032752512002525
  19    1.6879432236567e-15
  20    0.00088231387967837
  21    -0.0013559293675386
  22    3.9000593706261e-16
  23    0.00056058546997667
  24    0.00019614271834634
  25    0.00010677538253826
  26    -8.8157854668457e-18
  27    -0.00014229784767673
  28    -7.5304145432787e-17
  29    1.1485803312636e-05
  30    -0.00012245051471029
  31    -7.4576479931568e-05
  32    0.0008191398031823
  33    -6.3141956839208e-16
  34    -0.00072011814823206
  35    0.00042218994023447
  36    -5.423555606468e-16
  37    -0.00051418342097791
  38    -7.6868414350537e-06
  39    -8.1436240611574e-06
  40    -1.4435416381362e-17
  41    2.3862347466476e-05
  42    -5.5360828445889e-18
  43    -0.0014246997873005
  44    -0.00024959609460214
  45    -4.2201831618786e-05
  46    -0.00010995820564466
  47    -3.6276344313556e-05
  48    -0.001424699787298
  49    -0.00024959609460052
  50    -4.2201831619013e-05
  51    0.00010995820564442
  52    -3.6276344313369e-05
  53    -0.0032457504019187
  54    0.00045859323957919
  55    -8.5184820956196e-05
  56    -0.00052014920289211
  57    0.00030799245606456
  58    5.7378237687549e-05
  59    -0.0028792872085947
  60    -0.0039363345668962
  61    -0.00098977440698872
  62    -7.6180077185313e-16
  63    0.0019952871778379
  64    -0.00097820968496245
  65    -4.7273230763017e-16
  66    0.00051765446789748
  67    -0.000238916021469
  68    -0.00013617576573913
  69    1.6648323303388e-17
  70    -2.520814530312e-05
  71    6.866161490371e-19
  72    -0.0032457504019161
  73    0.00045859323958101
  74    -8.5184820956015e-05
  75    0.00052014920289179
  76    0.00030799245606414
 Sym= A
 Ene=               2
 Spin= Alpha
 Occup=    1.00000
   1                     0
   2    0.00045892112394273
   3    -0.00070082162324438
   4    0.00043285888313737
   5    -6.6995640554795e-17
   6    -0.00017410188221999
   7    -0.00048063829744062
   8    7.3822301809067e-17
   9    -0.00035205112861927
  10    7.0392013899249e-05
  11    1.0201013456805e-08
  12    -1.8000920929632e-16
  13    -2.8466462584677e-05
  14    8.723075893342e-18
  15                     0
  16    -0.0013849814345251
  17    0.0030174848072602
  18    -0.0011544282337181
  19    7.4562147820705e-16
  20    -0.00049027720072955
  21    -0.00057861690204052
  22    1.4567963933305e-16
  23    0.0014351440076375
  24    -0.00025105580360896
  25    -2.0800442194465e-05
  26    -5.9474954099459e-17
  27    8.0736484898751e-05
  28    2.9836430926369e-17
  29       1.0010074743977
  30    -0.0016256044983861
  31    -0.0077966037541161
  32    0.0015048638867369
  33    -4.4391535985761e-16
  34    0.00034766386718157
  35    0.0017853008315881
  36    -3.5212821781312e-16
  37    0.0021523025862625
  38    -0.00025891256441924
  39    -0.00016554139810813
  40    -2.1443157823311e-18
  41    -2.3770678196987e-05
  42    6.4396224679432e-20
  43    -0.0010174911661296
  44    -0.00029898724203791
  45    -4.1875726841941e-06
  46    -9.0665834404794e-05
  47    -0.00024866795272161
  48    -0.0010174911661285
  49    -0.00029898724203717
  50    -4.1875726842495e-06
  51    9.0665834404747e-05
  52    -0.00024866795272156
  53    -2.54126979442e-05
  54    -0.00024667669588162
  55    -2.6509689440975e-05
  56    -1.5609713339205e-05
  57    -2.2235561588887e-05
  58    -5.5084407284888e-05
  59    -0.00020711008530879
  60    -0.0001947536437238
  61    -0.001210739972366
  62    2.2330168345948e-16
  63    0.00055939950878665
  64    -0.00071203146644622
  65    1.5899143898958e-16
  66    0.0003737407125785
  67    1.1908217683306e-05
  68    -8.4390602537553e-06
  69    3.9203713437241e-18
  70    -2.4010568127397e-06
  71    2.073185992095e-18
  72    -2.5412697944419e-05
  73    -0.0002466766958819
  74    -2.6509689440983e-05
  75    1.5609713339202e-05
  76    -2.2235561588878e-05
 Sym= A
 Ene=               3
 Spin= Alpha
 Occup=    1.00000
   1                     0
   2    -0.0013849561826665
   3    0.0030174462463334
   4    0.0011544520552444
   5    -7.2121406187123e-16
   6    0.00049026762082582
   7    0.0005785904538874
   8    -2.8602138302313e-16
   9    -0.0014351633828189
  10    -0.00025105193038965
  11    -2.0800441664992e-05
  12    -1.8536384832351e-16
  13    8.073491854077e-05
  14    2.3355036926891e-17
  15                     0
  16    0.0004588449105388
  17    -0.00070065557523058
  18    -0.00043292241078722
  19    -7.5069568789769e-17
  20    0.00017407490303603
  21    0.00048060645747619
  22    -3.9992063863751e-17
  23    0.00035213010364469
  24    7.0378198664432e-05
  25    9.0563866509641e-09
  26    8.6293253665342e-18
  27    -2.8462019782061e-05
  28    3.9634673083487e-17
  29                     0
  30    -0.00020719954095902
  31    -0.0001951826830701
  32    0.0012108227853038
  33    3.0079312497226e-16
  34    -0.00055938037805018
  35    0.00071212971078491
  36    2.238720296147e-16
  37    -0.00037362227415628
  38    1.1893970010539e-05
  39    -8.4481698386224e-06
  40    -4.8897406542915e-18
  41    -2.4023648922623e-06
  42    -9.062986309939e-19
  43    -2.5468689470719e-05
  44    -0.00024669314921443
  45    2.6509459043207e-05
  46    -1.5614702609879e-05
  47    2.2221877682088e-05
  48    -2.5468689470784e-05
  49    -0.00024669314921434
  50    2.650945904321e-05
  51    1.5614702609889e-05
  52    2.2221877682082e-05
  53    -0.0010174925661037
  54    -0.00029900081685348
  55    4.1861138897942e-06
  56    -9.0666693528347e-05
  57    0.0002486667294979
  58       1.0010074728821
  59    -0.0016256158979031
  60    -0.0077966144830049
  61    -0.0015049305147844
  62    4.6993052016358e-17
  63    -0.00034763308453224
  64    -0.0017853400166464
  65    5.6166966399478e-17
  66    -0.002152282022955
  67    -0.00025891190951398
  68    -0.00016554186275157
  69    -1.3440392994601e-17
  70    -2.3770810360546e-05
  71    -1.3908750066537e-18
  72    -0.0010174925661047
  73    -0.00029900081685384
  74    4.1861138897585e-06
  75    9.0666693528366e-05
  76    0.00024866672949793
 Sym= A
 Ene=               4
 Spin= Alpha
 Occup=    1.00000
   1                     0
   2    -1.1654616174635e-15
   3    1.6083705863238e-14
   4    5.1925242929762e-16
   5    -0.010609153684557
   6    8.1916291957908e-16
   7    8.789807343329e-15
   8    -0.040963643179034
   9    -3.3515961655732e-15
  10    1.5786620522837e-15
  11    3.2740368270296e-16
  12    0.00010124544552893
  13    3.1836415736564e-15
  14    -0.0018885349841277
  15                     0
  16     4.88903981647e-15
  17    -2.5982545792185e-14
  18    -6.8228714450006e-16
  19    -0.012006861959429
  20    -3.8554696222941e-17
  21    7.5695555581889e-15
  22     0.033850455981258
  23    -9.1786173624318e-16
  24    4.3258955634709e-16
  25    -5.1623657095317e-17
  26     0.035725896658048
  27    -2.6515073336662e-15
  28    0.0069708436555096
  29                     0
  30    -1.3287669273601e-15
  31    4.7454011557601e-15
  32    1.4378033126418e-16
  33      0.66729803151867
  34    -4.1971790506003e-18
  35    -1.2745600496273e-15
  36      0.47178367836423
  37    -1.1252919880372e-15
  38    -6.4317642372414e-17
  39    -2.0733374184206e-18
  40    -0.011695350882829
  41    -2.1954762484078e-16
  42    -0.0046313692742116
  43     0.056932755260014
  44      0.05611341691359
  45    -0.00060953693157979
  46    -0.00079557297905835
  47    0.0020735321410679
  48    -0.056932755260015
  49    -0.056113416913582
  50    0.00060953693158173
  51    -0.00079557297905957
  52    -0.0020735321410669
  53    0.0011600651124521
  54    -0.031896400710968
  55    -0.0018901704308678
  56    -0.00050148190222274
  57    -0.0001061828226231
  58                     0
  59    3.9307932083072e-16
  60    -4.0617094026881e-15
  61    1.4018509897026e-15
  62    0.0065926405745916
  63    -2.1077940526962e-15
  64    -2.3605713894797e-15
  65    0.0087700254709652
  66    3.1940534844522e-16
  67    1.2306820577301e-17
  68    9.7088256164767e-17
  69    -1.3515613231369e-05
  70    1.4266985406253e-16
  71    -0.00018581604071507
  72    -0.0011600651124539
  73     0.031896400710971
  74    0.0018901704308686
  75    -0.00050148190222117
  76    0.00010618282262265
 Sym= A
 Ene=               5
 Spin= Alpha
 Occup=    1.00000
   1                     0
   2    -2.224524065912e-15
   3    6.3934247189981e-15
   4    4.7397708830793e-16
   5    -0.011902628619536
   6    -1.6620545898271e-15
   7    1.2804500854271e-15
   8     0.034256832458013
   9    -5.4895879652016e-16
  10    -1.5939075787887e-15
  11    3.9229545025009e-16
  12    -0.035728640640813
  13    -1.4170972169806e-15
  14    -0.0069525249913381
  15                     0
  16    -2.3714593309285e-16
  17    4.6395516672048e-15
  18    9.483693280271e-16
  19    -0.010491042648108
  20    -3.5897281501696e-17
  21    3.5876253818963e-15
  22    -0.041300087922613
  23    1.3785584736158e-16
  24    -8.2338083529786e-17
  25    -2.1891735655542e-16
  26    -0.00045422533991598
  27    1.6748331476504e-15
  28    0.0018197546185935
  29                     0
  30    9.5219459755655e-16
  31    -2.0290467412649e-15
  32    -6.9825369151692e-16
  33                     0
  34    4.8984500197965e-16
  35    -2.3100897412556e-16
  36    0.0041091899087889
  37    5.4303500454118e-16
  38    8.5063195109352e-17
  39    -1.700973191447e-17
  40    0.00012906735244831
  41    -2.4898325841636e-17
  42    0.00023158343932831
  43    0.00059762117913953
  44     -0.03245236289291
  45    0.0018962849618302
  46    -0.0004936460480504
  47    8.5701327947988e-05
  48    -0.00059762117913874
  49     0.032452362892902
  50    -0.0018962849618324
  51    -0.00049364604804902
  52    -8.5701327948836e-05
  53     0.056924072425514
  54     0.056431294834845
  55    0.00062824172871679
  56    -0.00079065712385563
  57    -0.002072584248186
  58                     0
  59    -1.0694851024636e-16
  60    -3.6172724565823e-16
  61    -4.3668683357637e-16
  62      0.66726546438351
  63    1.1090621181894e-15
  64    7.6542963792386e-16
  65      0.47172005603519
  66    -1.6378238331706e-15
  67    -4.2611716351599e-17
  68    -3.1628359125732e-17
  69     0.011696055231666
  70    -1.2577938033208e-16
  71    0.0046334311953984
  72    -0.056924072425511
  73     -0.05643129483485
  74    -0.00062824172871762
  75    -0.00079065712385793
  76    0.0020725842481865
 Sym= A
 Ene=               6
 Spin= Alpha
 Occup=    1.00000
   1                     0
   2     0.042415213541601
   3     0.082387359629744
   4      0.05678193607226
   5    4.6399121645077e-16
   6    0.0045089983785264
   7     0.032327997154667
   8    4.007884477289e-15
   9    -0.032640771398217
  10    -0.0044443387559453
  11    -0.0029728602791822
  12    9.6586172332298e-17
  13    0.00017629332462717
  14    -2.9539710257279e-16
  15                     0
  16    -0.029752218383416
  17    -0.0035500363644686
  18    -0.033777620493625
  19    -6.7104995938803e-16
  20    -0.072912021674498
  21     0.021515588584982
  22    -2.8772136635518e-15
  23    0.0080407127815551
  24    -0.029054598308412
  25     0.019803966767307
  26    1.2701074991696e-16
  27     0.012496473096223
  28    6.8715377375004e-17
  29                     0
  30     0.020825128058946
  31     0.019607818129479
  32      0.65631445616258
  33                     0
  34    -0.056543360361816
  35      0.46489837565622
  36    6.4888731836414e-16
  37    -0.041978618700129
  38    0.0017674079990527
  39    -0.012662847944626
  40    -2.169627217547e-17
  41    -0.0043820153311426
  42    8.5135461397678e-20
  43    -0.021803277332665
  44    -0.018330805426289
  45    -0.0023857679371224
  46    -0.00051744615396328
  47    -0.004044054836103
  48    -0.021803277332665
  49    -0.018330805426286
  50    -0.0023857679371226
  51    0.00051744615396288
  52    -0.0040440548361025
  53    0.0097444890170898
  54    -0.011761983445942
  55    0.00040446516848808
  56    0.00048449434783848
  57    0.00020647720582248
  58                     0
  59    -0.0039358442635539
  60     -0.03004651477827
  61    -0.022008925155082
  62                     0
  63    -0.021487139735323
  64    -0.019466055827332
  65    -3.8974662079153e-16
  66     -0.02144321615853
  67    -0.00065362857468209
  68    0.00055174300753246
  69    5.8360970538605e-18
  70    0.00032746650126806
  71    1.6826186103829e-18
  72    0.0097444890170883
  73    -0.011761983445946
  74    0.00040446516848804
  75    -0.00048449434783801
  76    0.00020647720582281
 Sym= A
 Ene=               7
 Spin= Alpha
 Occup=    1.00000
   1                     0
   2      0.03119211835577
   3    0.0063163761436485
   4    -0.031891425045167
   5    -7.6884374692449e-17
   6     -0.07280176204935
   7     0.022612397208465
   8    2.2556057650053e-15
   9    0.0069500422535548
  10     0.028921827742872
  11    -0.019914859656437
  12    1.1216370401592e-16
  13    -0.012497590232999
  14    -4.769125628089e-17
  15                     0
  16    -0.043437358213471
  17    -0.082552836875315
  18     0.055680549649897
  19    3.2739279775968e-16
  20    0.0020651196586773
  21     0.033068101780828
  22    5.7707448540917e-15
  23    -0.032389349835424
  24    0.0034719712128151
  25    0.0036390154787362
  26    -5.377346389867e-16
  27    0.00024290146897235
  28    2.8405041529961e-16
  29                     0
  30    0.0046368043874483
  31     0.030721324118287
  32                     0
  33                     0
  34    -0.023396430120405
  35    -0.0038782809832073
  36    -1.2766910375516e-15
  37    -0.022863791235827
  38    0.00071329821759015
  39    -0.00097692987173356
  40    2.0777978064323e-17
  41    -0.00047468048497447
  42    -1.3956746384774e-17
  43    -0.010481537745971
  44     0.011153549142115
  45    0.00032464313750162
  46    -0.00050212885786997
  47    7.0903279425464e-05
  48    -0.010481537745971
  49     0.011153549142104
  50    0.0003246431375027
  51    0.00050212885787053
  52    7.0903279424918e-05
  53     0.022142503692244
  54     0.017946471281529
  55    -0.0023735394970397
  56    0.00053399357586899
  57    -0.0040394026731584
  58                     0
  59     -0.02096890658885
  60    -0.020627002619347
  61      0.65594532743324
  62                     0
  63     -0.05729613747348
  64      0.46450684970375
  65    -5.7210539816697e-16
  66    -0.042721725836219
  67    -0.0017903337869491
  68     0.012688486501417
  69    9.7628348022547e-18
  70    0.0043954687594988
  71    1.0821461175391e-16
  72     0.022142503692243
  73     0.017946471281523
  74    -0.0023735394970407
  75    -0.00053399357586889
  76    -0.0040394026731581
 Sym= A
 Ene=               8
 Spin= Alpha
 Occup=    1.00000
   1                     0
   2     0.011334614867761
   3    -0.023306008697615
   4     0.015282896422188
   5    7.8105022449421e-17
   6    -0.0061203924153968
   7    0.0037150124329776
   8    4.2402445269697e-15
   9    0.0017137367777183
  10    0.0014939476678487
  11    -0.012146990417728
  12    -6.8033911350055e-17
  13    -0.0018910068320089
  14    3.3579780612469e-16
  15                     0
  16     -0.12558188542784
  17     0.014550092259596
  18    -0.088121620152461
  19    9.4639743778148e-16
  20     -0.28136400123891
  21    -0.029918596202129
  22    -6.9240330955567e-15
  23    -0.049746030335951
  24    -0.039445825090362
  25    -0.031664554189704
  26    -9.5948900255058e-18
  27    -0.0084519228861404
  28    -2.3179550218661e-16
  29                     0
  30      0.06088156072237
  31      0.12414841606456
  32                     0
  33                     0
  34      0.56922193911217
  35    -0.0069146343634321
  36    3.661505079908e-16
  37      0.38159227237757
  38    -0.018893403907156
  39    -0.0079484752846818
  40    3.6559414660119e-17
  41    -0.00077251600478485
  42    -1.5560159412128e-17
  43     0.032155272868804
  44     0.031101182296598
  45    -0.0018755142942515
  46    0.00013698022727501
  47    -0.008777617868918
  48     0.032155272868802
  49      0.03110118229661
  50    -0.0018755142942517
  51    -0.00013698022727473
  52    -0.0087776178689175
  53    0.0044394807401257
  54     0.011032545741414
  55    0.00087302030173003
  56    9.7950815922008e-05
  57    -0.0012817358956816
  58                     0
  59    -0.0092329807095019
  60    -0.0078396704729829
  61                     0
  62                     0
  63    -0.018841625097209
  64    -0.002891424371032
  65    -6.9996963855618e-16
  66    -0.0098419948007011
  67    -0.00042045066320212
  68    0.0001644189968532
  69    5.117243491668e-18
  70    0.00028692985348129
  71    4.2673031842596e-18
  72    0.0044394807401261
  73      0.01103254574141
  74    0.00087302030172982
  75    -9.7950815922118e-05
  76    -0.0012817358956814
 Sym= A
 Ene=               9
 Spin= Alpha
 Occup=    1.00000
   1                     0
   2      0.12602612816653
   3    -0.015329937117158
   4     -0.08766378386004
   5    6.1610940201804e-16
   6     -0.28172096696115
   7    -0.029811963092924
   8    -4.238579093294e-15
   9    -0.049716548041279
  10     0.039516930128312
  11     0.031279621239445
  12    6.4820236156645e-16
  13    0.0083939289826928
  14    -2.1379224037594e-16
  15                     0
  16     -0.01549995249137
  17      0.02380066866009
  18       0.0123727921431
  19    -8.8474409207919e-16
  20    -0.015442190118993
  21    0.0027261808677127
  22    -8.8923543918627e-16
  23    6.7146854222949e-05
  24    -0.0028011657110156
  25     0.011104957859399
  26    2.2042956532888e-16
  27    0.0016121259665386
  28    -1.5460843377731e-16
  29                     0
  30     0.011254368033076
  31     0.011955617091555
  32                     0
  33                     0
  34                     0
  35    -0.0031220141638039
  36    4.0072109036379e-16
  37    0.0027904925548274
  38    -0.0002050459433475
  39    -0.0004277532188184
  40    -4.0575163746585e-18
  41    -0.00031267198458868
  42    1.1485146089974e-17
  43    -0.003376970306088
  44     -0.01000856036696
  45    0.0008113841501146
  46    -9.346789748951e-05
  47    -0.0015731429365378
  48    -0.003376970306089
  49    -0.010008560366959
  50    0.00081138415011427
  51    9.3467897489187e-05
  52    -0.0015731429365377
  53    -0.032025872548201
  54     -0.03075284954814
  55    -0.0018476291997499
  56    -0.00013381131561507
  57    -0.0088248800130794
  58                     0
  59    -0.061220726090386
  60     -0.12447612445065
  61                     0
  62                     0
  63      0.56891001848299
  64    -0.0070141860486839
  65    7.4200879494058e-16
  66       0.3814755356839
  67     0.018889837910306
  68    0.0079582786179472
  69    9.089979633929e-17
  70    0.00078244233447348
  71    -3.8655321592505e-18
  72    -0.032025872548201
  73    -0.030752849548129
  74    -0.0018476291997497
  75    0.00013381131561532
  76    -0.0088248800130793
 Sym= A
 Ene=              10
 Spin= Alpha
 Occup=    1.00000
   1                     0
   2    -0.026416030853198
   3    -0.0023136103005931
   4     -0.02944890754028
   5    1.7866972487664e-15
   6    0.0015045136201393
   7    -0.00034425632011868
   8    -2.394023895556e-15
   9    0.0018665528065686
  10    0.00017093192155189
  11    0.0026234346578788
  12    3.9622011325193e-16
  13    -0.0012992800993196
  14    -8.9102431760105e-16
  15                     0
  16    -0.00065967029272757
  17    -0.048429204904093
  18     0.040482770849006
  19    -1.2320931930234e-14
  20     0.086618706393207
  21     0.017276418091047
  22    5.7386219251516e-15
  23     0.019871027333448
  24     0.024912471713079
  25     0.014107542247203
  26    -2.8988218311624e-16
  27    0.0012265667586765
  28    6.9185992449754e-17
  29                     0
  30      0.48862335447061
  31      0.55175315332404
  32                     0
  33                     0
  34                     0
  35    0.00074417725014529
  36    -7.8193741773727e-16
  37    0.0089550649973641
  38    0.0036094881219627
  39    0.0021485669117367
  40    2.2899754136277e-16
  41    0.00044452146609132
  42    5.7519656746684e-17
  43    -0.018818247786011
  44    0.0018247367498743
  45    0.00046300984169577
  46    5.4222047316707e-05
  47    0.0017374873324448
  48     -0.01881824778603
  49    0.0018247367498501
  50    0.00046300984169748
  51    -5.4222047314978e-05
  52    0.0017374873324428
  53    -0.0043934965511072
  54    0.0045712739049999
  55    -0.0011789394107135
  56    -0.00014279333492482
  57    0.00059240719633053
  58                     0
  59     0.006793532848652
  60     0.012734317883601
  61                     0
  62                     0
  63                     0
  64    0.0029003601367978
  65    5.7501089075186e-16
  66    0.00021507402211699
  67    -3.3187197541761e-05
  68    -0.0003781587886146
  69    3.7745795962585e-17
  70    -0.0001313132569229
  71    -9.2594172357195e-18
  72    -0.0043934965511028
  73    0.0045712739050052
  74    -0.0011789394107135
  75    0.00014279333492498
  76    0.00059240719633035
 Sym= A
 Ene=              11
 Spin= Alpha
 Occup=    1.00000
   1                     0
   2    -5.0008558621445e-05
   3    -0.048388696809691
   4    -0.039813703076778