[Molden Format]
made by pyscf v[2.0.1]
[Atoms] (AU)
C   1   6     0.00000000000000     0.00000000000000     0.00000000000000
C   2   6     2.85207482267819     0.00000000000000     0.00000000000000
F   3   9     3.65415199667903     0.00000000000000     2.45977207315200
H   4   1     3.58561868306314    -1.67891019462705    -0.93677358840720
H   5   1     3.58561868306314     1.67891019462705    -0.93677358840720
H   6   1    -0.73354386038494     1.67891019462705    -0.93677358840720
F   7   9    -0.80207717400084     0.00000000000000     2.45977207315200
H   8   1    -0.73354386038494    -1.67891019462705    -0.93677358840720
[GTO]
1 0
 s    8 1.00
                  6665  0.00069158396281299
                  1000  0.0053257961529341
                   228   0.027060721042034
                 64.71    0.10165684614077
                 21.06     0.2745748236174
                 7.495    0.44829431892377
                 2.797    0.28490261071525
                0.5215   0.015194859206082
 s    8 1.00
                  6665  -0.00029326965268655
                  1000  -0.0023180354739745
                   228  -0.011499786038565
                 64.71  -0.046826727009787
                 21.06   -0.12846616875047
                 7.495   -0.30126627246289
                 2.797   -0.25563070233011
                0.5215      1.093793361012
 s    1 1.00
                0.1596                   1
 p    3 1.00
                 9.439   0.056979251590039
                 2.002    0.31320721150073
                0.5456    0.76037674173753
 p    1 1.00
                0.1517                   1
 d    1 1.00
                  0.55                   1

2 0
 s    8 1.00
                  6665  0.00069158396281299
                  1000  0.0053257961529341
                   228   0.027060721042034
                 64.71    0.10165684614077
                 21.06     0.2745748236174
                 7.495    0.44829431892377
                 2.797    0.28490261071525
                0.5215   0.015194859206082
 s    8 1.00
                  6665  -0.00029326965268655
                  1000  -0.0023180354739745
                   228  -0.011499786038565
                 64.71  -0.046826727009787
                 21.06   -0.12846616875047
                 7.495   -0.30126627246289
                 2.797   -0.25563070233011
                0.5215      1.093793361012
 s    1 1.00
                0.1596                   1
 p    3 1.00
                 9.439   0.056979251590039
                 2.002    0.31320721150073
                0.5456    0.76037674173753
 p    1 1.00
                0.1517                   1
 d    1 1.00
                  0.55                   1

3 0
 s    8 1.00
                 14710  0.00072067370873197
                  2207  0.0055504869689163
                 502.8   0.028254207662589
                 142.6    0.10639582836653
                 46.47    0.28668420124307
                  16.7    0.44843796582416
                 6.356    0.26464118141135
                 1.316   0.015326060993048
 s    8 1.00
                 14710  -0.00032119389049893
                  2207  -0.0025461915683188
                 502.8  -0.012643359507821
                 142.6   -0.05195749170489
                 46.47   -0.14344713812646
                  16.7   -0.33243762329603
                 6.356   -0.21865906750347
                 1.316     1.0955904138622
 s    1 1.00
                0.3897                   1
 p    3 1.00
                 22.67   0.064834021493887
                 4.977    0.34053535983101
                 1.347    0.73464640679382
 p    1 1.00
                0.3471                   1
 d    1 1.00
                  1.64                   1

4 0
 s    3 1.00
                 13.01   0.033498726389998
                 1.962    0.23480080117413
                0.4446     0.8136829578829
 s    1 1.00
                 0.122                   1
 p    1 1.00
                 0.727                   1

5 0
 s    3 1.00
                 13.01   0.033498726389998
                 1.962    0.23480080117413
                0.4446     0.8136829578829
 s    1 1.00
                 0.122                   1
 p    1 1.00
                 0.727                   1

6 0
 s    3 1.00
                 13.01   0.033498726389998
                 1.962    0.23480080117413
                0.4446     0.8136829578829
 s    1 1.00
                 0.122                   1
 p    1 1.00
                 0.727                   1

7 0
 s    8 1.00
                 14710  0.00072067370873197
                  2207  0.0055504869689163
                 502.8   0.028254207662589
                 142.6    0.10639582836653
                 46.47    0.28668420124307
                  16.7    0.44843796582416
                 6.356    0.26464118141135
                 1.316   0.015326060993048
 s    8 1.00
                 14710  -0.00032119389049893
                  2207  -0.0025461915683188
                 502.8  -0.012643359507821
                 142.6   -0.05195749170489
                 46.47   -0.14344713812646
                  16.7   -0.33243762329603
                 6.356   -0.21865906750347
                 1.316     1.0955904138622
 s    1 1.00
                0.3897                   1
 p    3 1.00
                 22.67   0.064834021493887
                 4.977    0.34053535983101
                 1.347    0.73464640679382
 p    1 1.00
                0.3471                   1
 d    1 1.00
                  1.64                   1

8 0
 s    3 1.00
                 13.01   0.033498726389998
                 1.962    0.23480080117413
                0.4446     0.8136829578829
 s    1 1.00
                 0.122                   1
 p    1 1.00
                 0.727                   1

[5d]
[7f]
[9g]

[MO]
 Sym= A
 Ene=               0
 Spin= Alpha
 Occup=    1.00000
   1    -0.00038358205964056
   2    -0.00026988627159436
   3    -0.0051489393742546
   4    0.00010254182763685
   5    3.858631339998e-07
   6    0.00065314859740093
   7    2.2215173357517e-05
   8    -6.2927512660488e-08
   9    -0.00082019611111192
  10    0.0011978427643823
  11    -0.00040586317775574
  12    -2.4364450987661e-07
  13    2.6907092179225e-05
  14    4.5036155286088e-08
  15    -0.00011932522727391
  16    -0.00050507928878449
  17    0.0016081670483086
  18    0.00041289171022095
  19    1.5551117263266e-07
  20    -0.00030448994450983
  21    -0.00054072028717765
  22    7.3464423988749e-08
  23    0.00032754979988869
  24    -0.00014700322294866
  25    7.9061928294076e-05
  26    -1.4493686936676e-08
  27    2.6950246018843e-05
  28    -2.3494140717944e-08
  29    -2.3965765981885e-06
  30    -0.0002129810451574
  31    -0.00045638820360552
  32    0.00055522182864403
  33    6.3175110666934e-09
  34    -0.00024613628779752
  35    0.0002861372021209
  36    -3.1776352771809e-08
  37    8.3589809418871e-05
  38    -2.5745456956127e-05
  39    -3.6817947650138e-05
  40    -2.0924086988646e-09
  41    5.0735251514339e-05
  42    3.1510391177219e-09
  43    -9.0704482048433e-05
  44    1.2321487809906e-05
  45    4.2945292657139e-05
  46    2.4968521940601e-05
  47    -8.9031412621152e-05
  48    -9.0536059209122e-05
  49    1.235232236832e-05
  50    4.2915519085308e-05
  51    -2.4983140327531e-05
  52    -8.902144834443e-05
  53    0.00020184742619594
  54    0.0010348884832455
  55    6.638147525752e-05
  56    -0.00011846082791096
  57    0.00018174694778147
  58     -0.99726830095448
  59     0.043552365004282
  60      0.05614005258106
  61    0.0005284848896118
  62    -4.1428494066477e-06
  63     0.013567923339332
  64    0.00082137910716711
  65    -2.9512349595424e-06
  66    0.0078027999040306
  67     9.40175332064e-05
  68    -0.00018794780792436
  69    7.0380872502514e-08
  70    2.7961270355797e-05
  71    -2.4518073569548e-08
  72    0.00020067344291613
  73    0.0010340103895913
  74    6.6352758309596e-05
  75    0.00011845027377001
  76    0.00018170836455042
 Sym= A
 Ene=               1
 Spin= Alpha
 Occup=    1.00000
   1    0.00012278962807163
   2    0.00053451217565131
   3    -0.0015908155511493
   4    0.00046680826589939
   5    1.8086509736496e-08
   6    0.00030699381577844
   7    -0.0005218549188732
   8    3.3713713310967e-08
   9    -0.00032499751925579
  10    0.00014397337047077
  11    7.728555558536e-05
  12    -7.7960694975867e-09
  13    -2.128929357206e-05
  14    1.3272515844291e-09
  15    0.00039302026746756
  16    0.0003463356885564
  17    0.0052001008885979
  18    7.1870484277714e-05
  19    -2.0730834149012e-07
  20    -0.00068999668328074
  21    1.0422892612702e-05
  22    -3.383301617863e-07
  23    0.00080566209743425
  24    -0.001203245060235
  25    -0.00040786052737111
  26    -2.8400011023697e-07
  27    -2.4787600490789e-05
  28    -7.5457365287346e-08
  29      0.99726569584302
  30    -0.043570966498534
  31    -0.056162829524267
  32    0.00053641737383342
  33    -5.3882644773185e-06
  34    -0.013554471402747
  35    0.00082958576850903
  36    -3.7920642246992e-06
  37    -0.0077924176890256
  38    -9.3832574462891e-05
  39    -0.00018769220404766
  40    1.0235215066517e-07
  41    -2.794257804519e-05
  42    3.4514454100558e-08
  43    -0.00016009447677191
  44    -0.0010305732275414
  45    6.3813570678018e-05
  46    -0.00011410174829854
  47    -0.00018025339030268
  48    -0.00015958394343807
  49    -0.0010298205538092
  50    6.3819678556077e-05
  51    0.00011412806631384
  52    -0.00018023983991885
  53    8.5914949789076e-05
  54    -1.8661908568433e-05
  55    4.4227525943086e-05
  56    2.480974355104e-05
  57    8.9413337953485e-05
  58    2.1732008137999e-06
  59    0.00021165227801569
  60    0.00045220113514313
  61    0.00054966999538836
  62    3.6359729787701e-08
  63    0.0002435560627686
  64    0.00027830121362337
  65    -5.150585867483e-09
  66    -8.5151784215174e-05
  67    2.5757603920138e-05
  68    -3.743706720621e-05
  69    -7.2109583659264e-10
  70    -5.057420961958e-05
  71    -4.9994283604842e-09
  72    8.5885570226786e-05
  73    -1.8697629342036e-05
  74    4.4200931902788e-05
  75    -2.4814981568678e-05
  76    8.9411057690908e-05
 Sym= A
 Ene=               2
 Spin= Alpha
 Occup=    1.00000
   1      0.70774818604327
   2    -0.016346363766456
   3    -0.014888157812451
   4    -0.0079340044510209
   5    1.9363527556263e-07
   6    0.0026932296020027
   7    -0.0028373099217252
   8    7.6907109070097e-08
   9    0.0017988740220402
  10    0.00062000418517158
  11    0.00016433495928763
  12    -1.2240549222435e-09
  13    -0.001278150495828
  14    -3.2170206855747e-08
  15      0.70772938872682
  16    -0.016518252152492
  17    -0.015016162878451
  18    0.0078500462218065
  19    -4.5278895328598e-07
  20    0.0028495859654957
  21    0.0028136280193019
  22    -1.5040288215998e-07
  23    0.0018648628785654
  24    0.0006294456257229
  25    -0.00014852391403544
  26    3.7897434136348e-08
  27    -0.001264471890167
  28    -2.2279249023635e-08
  29    -1.2656790360163e-05
  30    -0.0010428115420942
  31    -6.6857538730985e-05
  32    0.00097110026593152
  33    3.1559550671055e-07
  34     0.004630971663101
  35    -0.00014215864875857
  36    2.5103601096322e-07
  37    0.0033817628382117
  38    -0.00049434419232549
  39    -0.00034780427301937
  40    1.2270469466946e-09
  41    -4.2586022414996e-05
  42    -5.833785534951e-10
  43    -0.0076868181264657
  44    0.00070873859125877
  45    0.00049521035840343
  46    -0.0010348022942755
  47    -0.00059031106065289
  48    -0.0076875515280863
  49    0.00070839090620316
  50    0.00049523857725482
  51    0.0010348254546977
  52    -0.00059033540772885
  53    -0.0075126262372121
  54    0.00075062825191848
  55    -0.00049040680897096
  56    0.0010191290031597
  57    -0.00058651279925794
  58    -1.5810080016343e-05
  59    -0.0010766308348973
  60    -9.9152102991588e-05
  61    -0.00097350300977726
  62    1.1830556329839e-07
  63    0.0047211282163647
  64    0.00014501524534163
  65    7.6025946536345e-08
  66    0.0034468219774945
  67    -0.00049442486497499
  68    0.0003492332612463
  69    -5.3697772180129e-09
  70    -4.3152502493104e-05
  71    1.4738963203889e-09
  72    -0.0075129465720359
  73    0.00075046407186305
  74    -0.00049041633874711
  75    -0.0010191373199489
  76    -0.00058652136746502
 Sym= A
 Ene=               3
 Spin= Alpha
 Occup=    1.00000
   1      0.70816402127121
   2    -0.0098288433374866
   3    -0.014715046561721
   4    0.0048624588061121
   5    -6.8384466279252e-07
   6     0.003107634054223
   7    7.5214531385997e-05
   8    -2.4022316136972e-07
   9    0.0027682803342342
  10    -0.00057914626195661
  11    9.1618594775654e-05
  12    3.823879316993e-08
  13    0.0005495093992833
  14    2.7567059775546e-08
  15       -0.708264312792
  16    0.0090366535992748
  17     0.014163607935261
  18    0.0063983169661597
  19    6.370433368023e-08
  20    -0.0032260538737166
  21    0.00065502378586304
  22    9.8435441118805e-09
  23    -0.002806241128481
  24    0.00065022532307376
  25    8.7668036274631e-05
  26    -1.9677178172199e-08
  27    -0.00067145155443653
  28    3.298892917507e-08
  29    -9.8449949138959e-05
  30    0.0012631756551311
  31    0.0011326923975388
  32    -0.0025378144488839
  33    -3.3067221347109e-07
  34    -0.0050482239051413
  35    -0.0023190346800488
  36    -2.3232737496835e-07
  37    -0.0035781466463307
  38    0.00048976722077971
  39    0.00021713841517672
  40    4.7981431082566e-09
  41    3.5380111414458e-05
  42    2.116588067937e-09
  43    0.0088384104033754
  44    0.00075334980118603
  45    -0.00027906974204095
  46    0.0010534856057892
  47    0.00057261434446187
  48    0.0088386354143383
  49    0.00075354596321899
  50    -0.00027907248764651
  51    -0.0010534844842335
  52    0.00057261796551293
  53    -0.0086740614044919
  54    -0.00056202266016539
  55    -0.00031547798946586
  56    0.0010488807648248
  57    -0.00058119439448878
  58    9.8716096525333e-05
  59    -0.0012225407045347
  60    -0.0010155407466597
  61    -0.002367826257358
  62    1.3769897086455e-07
  63    0.0050146428919381
  64    -0.0020712301745301
  65    1.3832450875081e-07
  66    0.0035562949760307
  67    -0.00048660111268086
  68    0.00023552649628572
  69    8.0203196005144e-09
  70    -4.1289615971155e-05
  71    -1.8693515530436e-09
  72    -0.0086730307289442
  73    -0.00056158772673845
  74    -0.00031543793559623
  75    -0.0010488441418061
  76    -0.00058115895639559
 Sym= A
 Ene=               4
 Spin= Alpha
 Occup=    1.00000
   1    -0.0015294984858122
   2    -0.018399419586801
   3      0.02626730141761
   4     0.022978002310218
   5    -3.1343401333466e-07
   6    -0.053211161576766
   7    0.0021664240098633
   8    -1.8840403417112e-07
   9    -0.012843041973634
  10    -0.021123109395949
  11    -0.0091273216541579
  12    -6.5126221063776e-08
  13    0.0043963749646779
  14    3.0037046316248e-08
  15    -0.0014242530111559
  16    -0.017616357031226
  17     0.026847762303684
  18    -0.022591534531503
  19    2.8467698191195e-08
  20    -0.053946018886854
  21    -0.0020521048721328
  22     4.57946115556e-08
  23    -0.013147282115034
  24    -0.021168481934039
  25    0.0090547219701019
  26    2.7008844782814e-08
  27    0.0043338627824572
  28    2.0227924611092e-08
  29    -0.037919541090955
  30     -0.20605526146977
  31     -0.23156270478128
  32      0.34494179084331
  33    5.5767087624179e-07
  34    -0.077344597339348
  35       0.2436349508847
  36    3.8557055747001e-07
  37    -0.060347840040301
  38    0.0013676287013923
  39    -0.0071743090223377
  40    -1.0751127553879e-08
  41    -0.0032121092258755
  42    -2.001001099919e-09
  43    -0.012333965218992
  44    -0.017896201857276
  45    -0.0018114870208909
  46    -0.0012415908742287
  47    -0.0015342448823543
  48    -0.012333975211981
  49    -0.017896228102427
  50    -0.0018114947337776
  51     0.001241587966227
  52    -0.0015342459128295
  53    -0.013138494421835
  54    -0.018092397807777
  55    0.0017891776892588
  56    0.0013140553386452
  57    -0.0015511052629306
  58    -0.037902003473073
  59     -0.20596472006148
  60     -0.23149071776195
  61     -0.34488338840332
  62    -1.4763823950748e-06
  63    -0.077794721019022
  64     -0.24361485129842
  65    -1.0197369670652e-06
  66    -0.060671541367195
  67    0.0013687435742555
  68    0.0071665332670185
  69    3.1965591055455e-08
  70    -0.0032092638575719
  71    -9.8383453592988e-09
  72    -0.013138257414565
  73    -0.018092449391692
  74    0.0017891975482531
  75    -0.0013140335866353
  76    -0.0015510956778046
 Sym= A
 Ene=               5
 Spin= Alpha
 Occup=    1.00000
   1    -0.0022948937219644
   2    -0.042474433371734
   3    -0.044806756696207
   4     -0.01702995841552
   5    -2.8846644883188e-07
   6     -0.05719093278421
   7     -0.05075281195755
   8    -1.6493122125091e-07
   9    0.0049089272542845
  10    -0.023468435874444
  11    -0.0080211942563877
  12    -4.250072983756e-08
  13    0.0061915085661279
  14    5.3969005511314e-09
  15    0.0022334405129407
  16     0.042064224213757
  17     0.044531325042563
  18    -0.016743574277092
  19    -2.8438732806252e-07
  20     0.057424899683657
  21    -0.050651313151049
  22    -4.7348282097288e-09
  23    -0.0048372467382374
  24     0.023507036711406
  25    -0.008016943381321
  26    1.144198276859e-07
  27    -0.0062160510001524
  28    2.4848723664038e-08
  29     0.039508869240937
  30      0.22080536782736
  31      0.25078818424941
  32     -0.36615689002812
  33    1.8869571232764e-06
  34     0.075148337722466
  35     -0.25134706758426
  36    1.3462552524646e-06
  37     0.052943575885604
  38    0.00031370343598406
  39    0.0088335405739997
  40    -3.0419052312752e-08
  41    0.0011519236960374
  42    -9.6058075664265e-09
  43    0.0066809214458111
  44    0.0057570032149212
  45    -0.00045202325944206
  46    6.3876384023048e-05
  47    0.0034243653581839
  48    0.0066802502460902
  49    0.0057565724823842
  50    -0.00045200851030723
  51    -6.3865510412639e-05
  52    0.0034243422480122
  53    -0.0068779049429151
  54    -0.0057712782673605
  55    -0.0004678692776912
  56    8.6451889252637e-05
  57    -0.003430957499292
  58    -0.039503060573574
  59     -0.22080722547732
  60     -0.25079050909624
  61     -0.36610814508782
  62    -1.0905838946375e-06
  63    -0.075331508920257
  64     -0.25129511134777
  65    -7.3917082180661e-07
  66    -0.053075707514437
  67    -0.00031076360664551
  68    0.0088345867907233
  69    2.4266434878992e-08
  70    -0.001152239886973
  71    -6.2358653309332e-09
  72    -0.0068776872280754
  73    -0.0057713298486545
  74    -0.00046784369499035
  75    -8.6429657265919e-05
  76    -0.0034309465159042
 Sym= A
 Ene=               6
 Spin= Alpha
 Occup=    1.00000
   1     0.039961954304496
   2      0.34692565461533
   3      0.22597806241667
   4      0.11252525678896
   5    -1.7809841780111e-05
   6     -0.16853576518593
   7     0.043386524272535
   8    -6.5018077971568e-06
   9    -0.067099655050168
  10    -0.021286339030216
  11    0.0079881533903417
  12    8.5146868779508e-07
  13    0.0078493030300921
  14    1.7349444338498e-06
  15     0.014428912546824
  16      0.12809798547666
  17     0.077717626638167
  18     -0.21960676718266
  19    2.1620156845476e-05
  20    -0.0069341168851726
  21    -0.076322802164637
  22    7.8422197035836e-06
  23     0.006561123637071
  24    -0.014588618368133
  25    0.0067529289294191
  26    -1.0608582864595e-06
  27     0.023577539825176
  28    1.6764896875288e-06
  29    -1.5336100105094e-05
  30    -0.0065008965112778
  31    -0.016629566160286
  32     0.021528816719393
  33    -1.780910616074e-06
  34    0.0063514572515429
  35     0.030373922127474
  36    -2.506530810736e-06
  37    0.0055134171285665
  38    -0.00041997700779352
  39    0.0022482350195224
  40    -3.073078701779e-07
  41    0.00066216289461367
  42    -5.714568264232e-08
  43    -0.0082900605828843
  44    -0.022444077756676
  45    -0.0055538039724925
  46     0.001806509441011
  47     0.001564423610374
  48    -0.0082560159298015
  49    -0.022428327179625
  50    -0.0055550909506509
  51    -0.0018076007014524
  52    0.0015655107193471
  53      0.19779955180321
  54     0.024403219911951
  55     0.011328172749758
  56    -0.020729457322892
  57     0.007072685615577
  58    -0.0029844797565835
  59    -0.033404119567485
  60    -0.044568294459749
  61    -0.022646590945076
  62    1.2700715829964e-06
  63     0.067499470083125
  64    -0.025828222379124
  65    1.8762203370826e-06
  66     0.052834391248042
  67    0.0011608171020737
  68    -0.0012730224136607
  69    2.5986881993799e-07
  70    7.5429465893941e-05
  71    -4.4930129622562e-08
  72      0.19782839438196
  73     0.024417227362988
  74     0.011329220280586
  75      0.02073031973531
  76    0.0070735690460437
 Sym= A
 Ene=               7
 Spin= Alpha
 Occup=    1.00000
   1    -0.0069061645673634
   2    -0.052710917093492
   3    -0.049274229152421
   4    -0.064686884555794
   5    -6.2286846860771e-06
   6    -0.0074083555762789
   7    -0.032348791786015
   8    -2.2142218498546e-06
   9     0.010320145248783
  10    -0.00025063105790115
  11    -0.0087951411289915
  12    3.2901270876123e-07
  13    0.0032380998224847
  14    1.1097393736044e-07
  15     0.028271323343211
  16      0.26715818149813
  17      0.16226482526263
  18      0.22153557634202
  19    -2.1836112586799e-06
  20     -0.23124784579518
  21     0.081839007644552
  22    -7.5522102462203e-07
  23    -0.093831098862604
  24    -0.0083562388888003
  25    -0.010848933628363
  26    1.2042066936425e-07
  27     -0.01914764777016
  28    2.3663989497161e-07
  29    -0.0037028126284874
  30    -0.027793690165575
  31    -0.026004289134811
  32    -0.010781942286741
  33    1.7548553465604e-07
  34     0.057661978094232
  35     -0.02435370691112
  36    3.0720875639165e-07
  37     0.048724700041542
  38    0.0030731713482753
  39    -0.0023003165618458
  40    2.7542204666009e-08
  41    -0.0012286575047187
  42    9.7010441248435e-09
  43      0.29297979407054
  44     0.075249490390279
  45    -0.0059892044906505
  46     0.027727512107588
  47    0.0074991061912554
  48      0.29297731247846
  49     0.075249130370421
  50    -0.0059890601857285
  51    -0.027727359051081
  52     0.007498983469837
  53    -0.0029807161146832
  54     0.009030675824384
  55    -0.0023344711112528
  56    -0.00040118878192827
  57    -0.00076740892352695
  58    0.00070194913492567
  59    0.0071963598759333
  60     0.011693672325632
  61     0.014207950042538
  62    7.2366612541371e-07
  63    -0.012785300769006
  64     0.019079759604906
  65    9.2156754635155e-07
  66    -0.0078991499304878
  67    0.00017880137136512
  68    0.0011074591514308
  69     8.14138413457e-08
  70    -0.00040907378805697
  71    -1.8922567353466e-08
  72    -0.0029717466724449
  73    0.0090341270176328
  74    -0.0023340881485587
  75    0.00040154138215514
  76    -0.00076708307312845
 Sym= A
 Ene=               8
 Spin= Alpha
 Occup=    1.00000
   1    -0.00099652268423064
   2      0.03091323239547
   3    0.0065349287638439
   4      -0.4165123587485
   5     4.62298951856e-07
   6     -0.16502868609566
   7     -0.15539951694421
   8    1.4931211549572e-07
   9    -0.066797457828498
  10    0.0080625920152159
  11    0.0081078735793141
  12    -6.9864944796251e-08
  13    -0.034552727001229
  14    -3.6460463790772e-07
  15    -0.023810517280033
  16     -0.19788618449019
  17     -0.14473388966864
  18      0.30429775717823
  19    -7.1632789029219e-06
  20    -0.0050248762455753
  21      0.11996375588734
  22    -2.5824080997683e-06
  23    0.0076650323069009
  24     0.013846754285574
  25    0.0059177212639626
  26    3.4189268800906e-07
  27    -0.018548359266091
  28    -2.8717480741409e-07
  29    0.00090688914167556
  30     0.015775704182953
  31     0.032074998484978
  32    -0.039721991425218
  33    2.8547592169972e-07
  34    -0.023349498145124
  35    -0.055638204601224
  36    6.4685831322382e-07
  37    -0.015868054547009
  38    0.00062341615281883
  39    -0.0037842785768889
  40    1.050747874004e-07
  41    -0.001226017482043
  42    2.469354974913e-08
  43    0.0046178390129468
  44     0.034489947781338
  45    0.0086170525894198
  46    -0.0011122201028788
  47    -0.0025699290242774
  48    0.0046072493781397
  49     0.034485612011645
  50    0.0086174823147875
  51    0.0011126103075877
  52    -0.0025702961843808
  53      0.21626578263955
  54     0.081829319653972
  55    -0.0026641313277765
  56    -0.018432795608823
  57     0.003345113934248
  58    -0.0022516677619613
  59    -0.0091551304560396
  60     0.005201988577952
  61     0.037100026706662
  62    -1.0991249665122e-06
  63     0.026830440841891
  64     0.059291692018524
  65    -7.5730210162319e-07
  66      0.02449465300033
  67    0.0027010252245814
  68     0.004637880650742
  69    9.9610496648286e-09
  70    -0.0018122842595816
  71    -9.1766395437612e-09
  72      0.21626408744174
  73     0.081827770846914
  74    -0.0026641502593729
  75     0.018432810959043
  76    0.0033450967111407
 Sym= A
 Ene=               9
 Spin= Alpha
 Occup=    1.00000
   1    5.9766417951417e-07
   2    -2.8351309588075e-06
   3    -1.9871136911004e-06
   4    -5.7347938487112e-06
   5      0.31872816679409
   6    -1.3650073304286e-06
   7    -2.2973262146344e-06
   8      0.11269921763363
   9    -2.3493271399656e-07
  10    9.716754160908e-08
  11    -4.0076321719462e-08
  12    -0.016785002837235
  13    -3.6287798178898e-07
  14    0.0046971452177557
  15    -3.261362201174e-07
  16    8.9050160432036e-07
  17    2.1326292596187e-07
  18    7.4685021733536e-06
  19      0.31872719670577
  20    -2.795385770172e-06
  21    2.7802560953678e-06
  22      0.11269689907447
  23    -1.1742494866871e-06
  24    1.8430333981507e-07
  25    -7.296758103998e-08
  26    -0.016786901702104
  27    -5.9014085399147e-07
  28    -0.0046975993701238
  29    5.6979989363683e-08
  30    -2.6491318725015e-08
  31    2.0521518398671e-07
  32    -8.9372428755423e-07
  33    -0.029773895572743
  34    -2.0006969218138e-08
  35    -1.2287911003415e-06
  36    -0.043499169673614
  37    1.1707734784272e-07
  38    6.8883618512345e-08
  39    -7.0880069203483e-08
  40    -0.0042074205333923
  41    -3.2894937212456e-08
  42    -0.0011155993391072
  43      -0.2166072055849
  44    -0.071849292567725
  45    0.0099756519882258
  46    -0.0095827411236351
  47    -0.0084873604447065
  48      0.21661512613743
  49     0.071852175466462
  50    -0.0099755708344566
  51    -0.0095834356824691
  52    0.0084875153846983
  53       0.2166100969771
  54     0.071848960368459
  55    0.0099755802367264
  56    -0.0095832479623988
  57    0.0084873433580945
  58     1.03578493563e-06
  59    1.8487033485608e-07
  60    5.5584286396884e-07
  61    -1.5282441254002e-07
  62    -0.029737089839876
  63    5.825203521325e-07
  64    4.2677447292416e-07
  65    -0.043473443855482
  66    4.1018601365175e-07
  67    -9.2118809341457e-09
  68    1.0255279117759e-07
  69    -0.0042081110413393
  70    -3.0872637581639e-08
  71     0.001115797919009
  72     -0.21660808495599
  73    -0.071847228205745
  74    -0.009975831204182
  75    -0.0095831150800455
  76    -0.0084874282369653
 Sym= A
 Ene=              10
 Spin= Alpha
 Occup=    1.00000
   1    -0.00087633263046366
   2    -0.0017273158988168
   3    -0.043033325908335
   4    0.0056736794246326
   5    -1.4030549828386e-07
   6    -0.0064109439551156
   7    -0.020239014066424
   8    -8.4805343353815e-08
   9    0.0036597596833628
  10    0.0060663008835734
  11    -0.011539260773851
  12    2.1880152374677e-08
  13    -0.0022254320550742
  14    3.1705592215434e-08
  15    -0.019952442965641
  16     -0.16126983362574
  17     0.013598663212541
  18    -0.099311412476633
  19    8.9415178103049e-07
  20     -0.25540883762517
  21    -0.054404471998638
  22    6.8242263732473e-07
  23    -0.049872175763124
  24    -0.037891744047078
  25    -0.037261043633739
  26    3.5869187520662e-07
  27    -0.009845429375412
  28    1.3142000225693e-07
  29    -0.0069923052957911
  30     -0.11877229700262
  31    -0.078158398910935
  32     -0.11117195566611
  33    7.3312076625716e-06
  34      0.52562811495215
  35    -0.083078414822736
  36    5.1220732266266e-06
  37      0.34636179436933
  38     -0.01969405988344
  39    -0.0054974525454514
  40    -1.4872186068514e-07
  41    -0.00018327257141102
  42    -4.9209312871175e-08
  43     0.003836700946852
  44     0.027528173172999
  45    -8.6280641351174e-05
  46    -0.0033617773671727
  47    -0.0092971045850152
  48    0.0038369166430267
  49     0.027527527284883
  50    -8.6325388747294e-05
  51    0.0033617085791555
  52    -0.0092970918887867
  53    -0.0031929584271584
  54    -0.0062411323391566
  55    0.00086938630649626
  56    -0.00079802433558962
  57    0.00093168399191091
  58    -0.0008430433750385
  59    -0.0010884653783927
  60    0.0030831776001649
  61    -0.0035635183106452
  62    7.6798403079933e-08
  63    -0.0095090789865789
  64    0.0036683968688562
  65    9.9540588346813e-08
  66    -0.0028990806761658
  67    -0.00070439680492231
  68    0.0004502786275055
  69    7.0386693506227e-10
  70    0.00032827610265777
  71    7.5393377062289e-09
  72    -0.0031926572146602
  73     -0.00624090126063
  74    0.00086942889381805
  75    0.00079803428059259
  76    0.00093169262301939
 Sym= A
 Ene=              11
 Spin= Alpha
 Occup=    1.00000
   1    -2.4929265355963e-06
   2    -2.0230698677725e-05
   3    -1.3394607045261e-05
   4    -1.164052421498e-05
   5     -0.32165033503439
   6    8.9313050611125e-06
   7    -4.344521175662e-06