[Molden Format]
made by pyscf v[2.0.1]
[Atoms] (AU)
C   1   6     0.00000000000000     0.00000000000000     0.00000000000000
C   2   6     2.85207482267819     0.00000000000000     0.00000000000000
F   3   9     3.65415199667903     0.00000000000000     2.45977207315200
H   4   1     3.58561868306314    -1.67891019462705    -0.93677358840720
H   5   1     3.58561868306314     1.67891019462705    -0.93677358840720
H   6   1    -0.73354386038494    -1.81607280279338     0.63100219691706
F   7   9    -0.80207717400084     0.42713493797885    -2.42240260828301
H   8   1    -0.73354386038494     1.49073474976653     1.21408158844390
[GTO]
1 0
 s    8 1.00
                  6665  0.00069158396281299
                  1000  0.0053257961529341
                   228   0.027060721042034
                 64.71    0.10165684614077
                 21.06     0.2745748236174
                 7.495    0.44829431892377
                 2.797    0.28490261071525
                0.5215   0.015194859206082
 s    8 1.00
                  6665  -0.00029326965268655
                  1000  -0.0023180354739745
                   228  -0.011499786038565
                 64.71  -0.046826727009787
                 21.06   -0.12846616875047
                 7.495   -0.30126627246289
                 2.797   -0.25563070233011
                0.5215      1.093793361012
 s    1 1.00
                0.1596                   1
 p    3 1.00
                 9.439   0.056979251590039
                 2.002    0.31320721150073
                0.5456    0.76037674173753
 p    1 1.00
                0.1517                   1
 d    1 1.00
                  0.55                   1

2 0
 s    8 1.00
                  6665  0.00069158396281299
                  1000  0.0053257961529341
                   228   0.027060721042034
                 64.71    0.10165684614077
                 21.06     0.2745748236174
                 7.495    0.44829431892377
                 2.797    0.28490261071525
                0.5215   0.015194859206082
 s    8 1.00
                  6665  -0.00029326965268655
                  1000  -0.0023180354739745
                   228  -0.011499786038565
                 64.71  -0.046826727009787
                 21.06   -0.12846616875047
                 7.495   -0.30126627246289
                 2.797   -0.25563070233011
                0.5215      1.093793361012
 s    1 1.00
                0.1596                   1
 p    3 1.00
                 9.439   0.056979251590039
                 2.002    0.31320721150073
                0.5456    0.76037674173753
 p    1 1.00
                0.1517                   1
 d    1 1.00
                  0.55                   1

3 0
 s    8 1.00
                 14710  0.00072067370873197
                  2207  0.0055504869689163
                 502.8   0.028254207662589
                 142.6    0.10639582836653
                 46.47    0.28668420124307
                  16.7    0.44843796582416
                 6.356    0.26464118141135
                 1.316   0.015326060993048
 s    8 1.00
                 14710  -0.00032119389049893
                  2207  -0.0025461915683188
                 502.8  -0.012643359507821
                 142.6   -0.05195749170489
                 46.47   -0.14344713812646
                  16.7   -0.33243762329603
                 6.356   -0.21865906750347
                 1.316     1.0955904138622
 s    1 1.00
                0.3897                   1
 p    3 1.00
                 22.67   0.064834021493887
                 4.977    0.34053535983101
                 1.347    0.73464640679382
 p    1 1.00
                0.3471                   1
 d    1 1.00
                  1.64                   1

4 0
 s    3 1.00
                 13.01   0.033498726389998
                 1.962    0.23480080117413
                0.4446     0.8136829578829
 s    1 1.00
                 0.122                   1
 p    1 1.00
                 0.727                   1

5 0
 s    3 1.00
                 13.01   0.033498726389998
                 1.962    0.23480080117413
                0.4446     0.8136829578829
 s    1 1.00
                 0.122                   1
 p    1 1.00
                 0.727                   1

6 0
 s    3 1.00
                 13.01   0.033498726389998
                 1.962    0.23480080117413
                0.4446     0.8136829578829
 s    1 1.00
                 0.122                   1
 p    1 1.00
                 0.727                   1

7 0
 s    8 1.00
                 14710  0.00072067370873197
                  2207  0.0055504869689163
                 502.8   0.028254207662589
                 142.6    0.10639582836653
                 46.47    0.28668420124307
                  16.7    0.44843796582416
                 6.356    0.26464118141135
                 1.316   0.015326060993048
 s    8 1.00
                 14710  -0.00032119389049893
                  2207  -0.0025461915683188
                 502.8  -0.012643359507821
                 142.6   -0.05195749170489
                 46.47   -0.14344713812646
                  16.7   -0.33243762329603
                 6.356   -0.21865906750347
                 1.316     1.0955904138622
 s    1 1.00
                0.3897                   1
 p    3 1.00
                 22.67   0.064834021493887
                 4.977    0.34053535983101
                 1.347    0.73464640679382
 p    1 1.00
                0.3471                   1
 d    1 1.00
                  1.64                   1

8 0
 s    3 1.00
                 13.01   0.033498726389998
                 1.962    0.23480080117413
                0.4446     0.8136829578829
 s    1 1.00
                 0.122                   1
 p    1 1.00
                 0.727                   1

[5d]
[7f]
[9g]

[MO]
 Sym= A
 Ene=               0
 Spin= Alpha
 Occup=    1.00000
   1       1.0022133219543
   2    -0.00083763539476435
   3    -0.011504154964956
   4    0.00054251237777246
   5    0.00037566157092168
   6    -0.0023708808110292
   7    -0.00081235236757368
   8    0.00021238548261259
   9    -0.0012182356987503
  10    0.00010958305634897
  11    1.722709092996e-05
  12    -2.2990163641641e-05
  13    -0.00010998392087855
  14     8.22089384557e-06
  15    -9.9482125722825e-05
  16    -0.00065248424147756
  17    0.0022174659714335
  18    0.0011208505360315
  19    -3.762288060891e-06
  20    -0.00013431596094095
  21    -0.00088736826150199
  22    -6.9242665363535e-05
  23    3.1992913336784e-05
  24    0.00021240571906668
  25    -2.0362939644273e-05
  26    -6.0237039370218e-06
  27    -0.00028732033817158
  28    7.6548937138795e-06
  29    -3.6054261391249e-05
  30    3.4315968687343e-05
  31    0.00021161325224369
  32    -0.00026880473986637
  33    7.3788601842084e-06
  34    -7.5257981886409e-05
  35    -0.00043942331580282
  36    -3.7412508245444e-06
  37    -4.7487448727481e-05
  38    -4.3178339182207e-07
  39    -5.6113715408279e-06
  40    -1.5487881678732e-08
  41    2.3213025208895e-05
  42    9.943746498343e-07
  43    3.4083636270999e-05
  44    0.00021977219888857
  45    -4.9410292382304e-05
  46    2.5727229536812e-05
  47    8.9130388807196e-06
  48    -4.0923582743173e-06
  49    0.00029158537613738
  50    -6.7383672005098e-05
  51    -1.9040735328476e-05
  52    1.1218656568735e-05
  53    -0.0030490558266312
  54    0.00080287910276996
  55    -0.00010307970026803
  56    -0.00057006838633218
  57    0.00024610632769726
  58    0.00015127431987952
  59    3.8978412432736e-05
  60    -0.00029631827016058
  61    -0.00037223403791155
  62    0.00016360860824678
  63    -0.00090695934542743
  64    -0.00047974151980014
  65    0.0002539669236319
  66    -0.0014434287436694
  67    -0.00029735951455735
  68    -0.00016048090879527
  69    9.7023047079606e-05
  70    -1.6600619619744e-05
  71    2.7857815372764e-05
  72    -0.0030259916354969
  73      0.00082776248017
  74    -8.8882158898757e-05
  75    0.00043592150624296
  76    0.00041467741061782
 Sym= A
 Ene=               1
 Spin= Alpha
 Occup=    1.00000
   1    -9.8666893324088e-05
   2    -0.00065263433111172
   3     0.002219495929221
   4    -0.0011160391096712
   5    -2.5520094355376e-05
   6    0.00013113634605252
   7    0.00089006675492445
   8    -6.2066883245292e-05
   9    -4.5050760880715e-05
  10    0.00021336609644652
  11    -1.9987525703799e-05
  12    -8.2140381845881e-06
  13    -0.00028857724492116
  14    -4.0896267024449e-06
  15       1.0022133881485
  16    -0.00089172363282236
  17    -0.011534990881795
  18    -0.00057339438647695
  19    -4.191299553974e-05
  20    0.0024352032805171
  21    0.00080004099262277
  22    -2.474411609633e-06
  23    0.0012513518224723
  24    0.00011587715406693
  25    1.6913831062067e-05
  26    7.9567808950406e-06
  27    -0.00010483311722831
  28    -1.1142505428545e-05
  29    0.00015173840773325
  30    4.1980680502041e-05
  31    -0.00029216064034484
  32    0.00037328439033576
  33    3.6276234074387e-06
  34    0.00091873200345019
  35    0.00048244977773225
  36    -5.3321649581586e-07
  37    0.0014618683697797
  38    -0.00031304501723476
  39    -0.00016271546981983
  40    -2.5217802252887e-07
  41    -2.4998788282504e-05
  42    4.3389770646419e-07
  43    -0.0030987224018921
  44    0.0007918180387068
  45    0.00010428450634343
  46    -0.00052346718625854
  47    -0.0003429538987214
  48    -0.0030758817481014
  49    0.00081648274517605
  50    9.0068654795758e-05
  51    0.00050611274058953
  52    -0.00033431416121943
  53    3.019545785074e-05
  54    0.00021675833489621
  55    4.9515839075262e-05
  56    2.656442016595e-05
  57    -4.2421967307309e-06
  58    -3.6025941492131e-05
  59    3.5515196938894e-05
  60    0.00021335354899976
  61    0.00027037656402355
  62    -6.0700541013697e-06
  63    7.6566420067191e-05
  64    0.00044081137787005
  65    -1.2160106258383e-05
  66    4.6614181119771e-05
  67    -1.0611873557001e-06
  68    -5.5890070975184e-06
  69    -3.7905244849054e-06
  70    2.2871712143023e-05
  71    -2.335033792641e-08
  72    -6.5096937570796e-06
  73    0.00028848320196956
  74    6.7571085638553e-05
  75    -1.6562688061428e-05
  76    -1.4296263910955e-05
 Sym= A
 Ene=               2
 Spin= Alpha
 Occup=    1.00000
   1    3.0133664303004e-05
   2    3.3761229363729e-05
   3    -0.0010316189976598
   4    -0.00010788117737849
   5    1.2875685924092e-05
   6    2.6112045372629e-05
   7    -0.00070446823992545
   8    -6.3473457763859e-05
   9    -0.00015516666710803
  10    8.5555175207186e-05
  11    -1.4224174711233e-05
  12    1.4152530656911e-05
  13    -4.7944894477012e-05
  14    -6.8781872216143e-06
  15    -5.1867857946371e-05
  16    5.1297273373829e-05
  17    0.0033195206489021
  18    0.00023020800405967
  19    -7.9313107658556e-07
  20    0.00052974257304055
  21    -0.00017865824862494
  22    2.1891508110278e-05
  23    0.0013031202021744
  24    -1.194165811151e-05
  25    1.0360246662482e-05
  26    2.3603452188911e-06
  27    1.1844101798696e-05
  28    -5.5991365762847e-06
  29       1.0009698269559
  30    -0.0040174947891916
  31    -0.010747926586516
  32    -0.00092786030932086
  33    3.1165882590469e-05
  34    -0.002770901032131
  35    3.8102202724948e-05
  36    2.2881557301546e-05
  37    5.0159797685132e-05
  38    -0.00015429597560003
  39    -8.9320757759174e-05
  40    -1.4132407211863e-06
  41    -9.6999926848002e-06
  42    -8.6080612476968e-07
  43    -0.0002662913784453
  44    -0.00016232035313498
  45    3.2961311844681e-06
  46    -1.6853220320505e-05
  47    -0.00016307138018876
  48    -0.00026637450320841
  49    -0.00019489760412834
  50    3.4481023674352e-06
  51    1.5928007204524e-05
  52    -0.00016418627340072
  53    5.4365951681457e-05
  54    -0.00016348020074923
  55    -3.2976133123104e-05
  56    -5.3423992615966e-06
  57    -1.0431738358525e-05
  58    -2.732574373924e-05
  59    -4.672127404882e-05
  60    0.00012902998224833
  61    -2.4763131427975e-05
  62    -3.8330733924487e-06
  63    6.9467808776749e-06
  64    0.00016985355151942
  65    1.1403042979047e-05
  66    1.4344483380964e-05
  67    -3.4281263486546e-06
  68    -2.4628637111229e-06
  69    5.9925941796036e-06
  70    1.3806915159867e-06
  71    1.3581853991862e-06
  72    3.6472037489379e-05
  73    -0.00010242744367316
  74    -4.6567686024588e-05
  75    2.1442097029993e-05
  76    -1.2584258877221e-05
 Sym= A
 Ene=               3
 Spin= Alpha
 Occup=    1.00000
   1    -5.1851175747533e-05
   2    5.0035527100073e-05
   3     0.003318777857494
   4    -0.00022912404154476
   5    9.1540405482797e-05
   6    -0.00052313651541366
   7    0.0001791820157921
   8    0.00024795949012428
   9    -0.0012799839013543
  10    -1.2279990531486e-05
  11    1.1201684484565e-05
  12    -7.5683137261909e-07
  13    1.1618485562602e-05
  14    3.6872213149872e-06
  15    3.0156447922721e-05
  16    3.3044678147669e-05
  17    -0.0010320824551349
  18    0.00010719565779383
  19    1.6846301136777e-05
  20    -2.2922987321135e-05
  21    0.00070420396345072
  22    -8.9601196166505e-05
  23    0.00014199384499469
  24    7.8803695548293e-05
  25    -1.2741290503873e-05
  26    -3.0425522100895e-05
  27    -5.185096991713e-05
  28    9.2171281907115e-06
  29    -2.732024612699e-05
  30    -4.6627226793427e-05
  31    0.00012919319466517
  32    2.4720115325088e-05
  33    -2.5733746713896e-06
  34    -7.6709828239744e-06
  35    -0.00016985519821164
  36    1.3738642155406e-05
  37    -1.228729188377e-05
  38    -5.0947870701626e-06
  39    -2.6536796294739e-06
  40    -4.8458901355491e-06
  41    4.2711040916596e-07
  42    -9.0848439351701e-07
  43    5.3810003818071e-05
  44    -0.00016361695114617
  45    3.2975531200031e-05
  46    -7.1402538368765e-06
  47    9.332992862421e-06
  48    3.5355669095485e-05
  49    -0.0001027987832978
  50    4.6583234038443e-05
  51    1.9017515478376e-05
  52    1.6081894083909e-05
  53    -0.00026781957373976
  54    -0.00016273805245653
  55    -3.3331896851208e-06
  56    -4.5059000723976e-05
  57    0.00015767647672219
  58       1.0009698291931
  59    -0.0040175290237516
  60    -0.010747977927515
  61    0.0009293754522664
  62    -0.00045029471241521
  63    0.0027345319710437
  64    -3.7103219495424e-05
  65    3.1358953579697e-05
  66    -4.5176180860041e-05
  67    -0.0001466618820216
  68    -8.7771288655729e-05
  69    4.8697137405409e-05
  70    -5.2649319326377e-06
  71    1.6351704238082e-05
  72    -0.00026774621295578
  73    -0.00019521716507305
  74    -3.4755884359875e-06
  75    -1.2693743963502e-05
  76    0.00016451163797288
 Sym= A
 Ene=               4
 Spin= Alpha
 Occup=    1.00000
   1    0.0013601798706034
   2     0.020389683058114
   3     0.051295495539016
   4     0.024806933720842
   5    -0.0033715809865736
   6    -0.00084544685665306
   7     0.019757705086874
   8    -0.021855415458607
   9        -0.02713296228
  10    -0.0022221362028432
  11    0.00032532370589433
  12    0.00055218906889138
  13    -4.333966306205e-05
  14    -0.0006399038682959
  15    0.0016267623089637
  16     0.002776675414247
  17    -0.0089990234319732
  18    0.0068353492903061
  19    0.0061758924904963
  20    -0.0011020380013342
  21     0.025274185357585
  22     0.029116327467933
  23     0.012091562377067
  24    -0.011481074423178
  25     0.018677686596027
  26     0.025718005249746
  27    0.0087033701811618
  28    0.0056809002080927
  29    0.0013224747121151
  30     0.005191121052817
  31    -0.0057382292048943
  32      0.42881383686594
  33      0.48945974490414
  34     -0.13977278379734
  35      0.30400785681464
  36      0.34549231222839
  37    -0.096408727844402
  38    0.0046963820664406
  39    -0.0070089242538042
  40    -0.0088018211804079
  41    -0.002769180994013
  42    -0.0034968450991033
  43      0.01655889182515
  44     0.022566069579187
  45    -0.001215505701369
  46    -0.00084468868580028
  47    0.0001372673793327
  48     -0.04590046051037
  49    -0.052944678127898
  50    -0.0010462914608844
  51    -0.0010105839715197
  52    -0.0020881415909716
  53    0.0038252619406948
  54    -0.026508529033028
  55    -0.00047609603895141
  56    -0.0003665439108538
  57    0.00070325072099499
  58     0.001416610140361
  59    -4.9200870394134e-05
  60    -0.017870010859954
  61    -0.0043113525784315
  62    0.0029749485374877
  63    -0.0059889074884847
  64    -0.0053359208846716
  65     0.005644020764188
  66    -0.0084982159805935
  67    -0.00018520560394277
  68    0.00041847934692956
  69    4.6230870702902e-05
  70    0.00015532597233127
  71    -0.00019703855137217
  72    0.0069762038989979
  73      0.01289712919007
  74    0.00079033214686588
  75    -0.00063399516787077
  76    -0.00027917535413048
 Sym= A
 Ene=               5
 Spin= Alpha
 Occup=    1.00000
   1    -0.001527357550025
   2    -0.0038739448150439
   3    0.0034679536473464
   4    0.0079195826611811
   5    0.0080244444306827
   6    -0.00093828524394144
   7     0.026361460760661
   8     0.027170472677242
   9     0.015936756372595
  10     0.005584130371239
  11    -0.021114938559518
  12    -0.023968348874541
  13    -0.013640905754702
  14    -0.0015386537858403
  15    -0.0009719908077098
  16    -0.021861662985264
  17    -0.060752674509264
  18     0.026490536625062
  19    -0.0067965355739077
  20    0.00012022836378377
  21     0.016457603528063
  22    -0.027012801690441
  23     -0.02092435022398
  24    0.0018430548637147
  25    -6.9121073373384e-05
  26    -0.0003638612115826
  27    0.00019656019036441
  28    0.00060574512605693
  29    -0.0011602429125621
  30    0.0011114665241393
  31     0.018502638370913
  32    -0.0057212087339178
  33    0.0022928410401776
  34    -0.0068264139476152
  35    -0.0049648212150453
  36    0.0039055454741958
  37    -0.0099852388395308
  38    0.00025384305456063
  39    -0.00050174451248093
  40     7.55742866371e-05
  41    -0.00024861521601538
  42    0.00011260246341123
  43    -0.0027947773732801
  44    -0.010095470534007
  45    0.0012944239614458
  46    -0.00058447648897123
  47    0.00074273762597262
  48    -0.0061705669877732
  49      0.03333460194337
  50    -0.0026135971137908
  51    -0.00011603342067158
  52    -0.00014597350494406
  53     0.041807375685936
  54     0.050040598686117
  55    -0.0012975070195823
  56    -0.00087510481341296
  57    -0.0020888827920614
  58    -0.001355576247996
  59    0.00030127775052076
  60     0.012632475623047
  61      0.46698114469766
  62      0.46879517245077
  63    -0.071566625672575
  64      0.33108103187264
  65      0.32973155994453
  66    -0.048089392268252
  67    -0.0024842351938949
  68    0.0080584696915227
  69    0.0085976315268572
  70    0.0045383776001955
  71    0.0017499407952499
  72    -0.011988484029735
  73    -0.016210698688273
  74    -0.0011344205388406
  75    -0.00075187854597954
  76    -0.00012125713764167
 Sym= A
 Ene=               6
 Spin= Alpha
 Occup=    1.00000
   1    0.00098081463268301
   2     0.021906215977756
   3     0.060605528245751
   4     0.026462039196382
   5    0.0066678782116066
   6     0.001358676235249
   7     0.016385710425471
   8     0.030441501353667
   9    -0.015730900283257
  10    -0.0018400753466358
  11    0.00020615182023675
  12    0.00020823012789568
  13    -0.00022804136208362
  14    0.00070099389383632
  15    0.0015184725297381
  16     0.002872145734177
  17    -0.0040305419607053
  18    0.0071813570271504
  19    -0.0056606401742081
  20    -0.0013355390309546
  21     0.025923461182727
  22    -0.028946832688498
  23     0.011258645563383
  24     -0.01264983772719
  25     0.020461776202284
  26    -0.023467134415858
  27    0.0094962317337674
  28    -0.0051343469544609
  29    0.0013537986279017
  30    -6.0146123015852e-05
  31    -0.012316909652064
  32      0.46423981866847
  33     -0.45247857506112
  34     -0.15140848871358
  35      0.32919385588778
  36     -0.31878320066269
  37     -0.10431053589343
  38    0.0050032365867285
  39    -0.0075755648615725
  40    0.0081448085724563
  41    -0.0030415896216045
  42    0.0031384785090962
  43    -0.044544937363516
  44    -0.051063560477825
  45    -0.0012030416819545
  46    0.0010734886590349
  47    -0.0019903539575156
  48     0.012746117730051
  49     0.016889177740307
  50    -0.0011661317306546
  51    0.00081221633036388
  52    5.5900792415935e-05
  53    0.0029620825631503
  54     0.010474825875762
  55    0.0013133044529884
  56    0.00044582340043523
  57    0.00082689268979162
  58    0.0011499877019304
  59    -0.0011096152131548
  60    -0.018390360491642
  61    -0.0056803512805647
  62    -0.0011091583161002
  63    -0.0070897907077655
  64    -0.0049164998381296
  65    -0.0021750395941865
  66     -0.01047628659312
  67    -0.00022611898082402
  68    0.00051432264068187
  69    0.0001014938384626
  70    0.00026361226632313
  71    2.701125371007e-05
  72    0.0060192742350312
  73     -0.03373770158712
  74    -0.002620546040879
  75    0.00013249777127521
  76    -0.00012604473662539
 Sym= A
 Ene=               7
 Spin= Alpha
 Occup=    1.00000
   1    -0.0016136442837245
   2    -0.0036495186595112
   3    0.0083839227874126
   4     0.007456735551419
   5    -0.0081303383460312
   6    -0.003442693427496
   7     0.025378498592372
   8    -0.031736733503043
   9    0.0062710213943136
  10     0.018796590740999
  11    -0.017213318816932
  12     0.022269225083862
  13    -0.0043510836432221
  14    0.0089280099264466
  15    -0.0013388139274419
  16    -0.020291999490038
  17    -0.050871127033061
  18     0.024382496640497
  19    0.0034920655334708
  20    -0.00019389408920238
  21     0.019515911997547
  22     0.026309511991097
  23    -0.022725728708097
  24    0.0022917347771254
  25    -0.0003754101657185
  26    -0.00017108290290116
  27    7.0230223903015e-05
  28    -0.00046005965286654
  29    -0.001405864493587
  30    8.6291295895902e-05
  31     0.017812809554242
  32    -0.0043218536845613
  33    -0.0018806948648301
  34    -0.0064188963360486
  35    -0.0053333100395354
  36    -0.0040709283602333
  37    -0.0093131920848694
  38    0.00019085022774999
  39    -0.0004391687551133
  40    1.3096456155571e-05
  41    -0.00014875083209678
  42    -0.00011892733940044
  43    -0.0040956138687414
  44     0.026215490281441
  45    -0.00047965074709405
  46    0.00023998290780584
  47    0.00074797039989588
  48    -0.0069713091904682
  49    -0.012943313221701
  50    0.00079343826342283
  51    0.00069486618434281
  52    -0.00016952246321974
  53    -0.016085097502549
  54    -0.022444976340956
  55    -0.0011586200960915
  56    0.00079105623843331
  57    0.00024962692045251
  58    -0.0013077822157265
  59    -0.0049193880275399
  60    0.0059474367910448
  61      0.42593776044273
  62     -0.46059951803833
  63      -0.2218261988018
  64      0.30191691687702
  65      -0.3253632146299
  66     -0.15433300295403
  67    -0.0071624955599685
  68    0.0062552421387537
  69    -0.0074389228439198
  70    0.0013160152213143
  71    -0.0046810823823958
  72     0.043242190042244
  73     0.052126602884272
  74    -0.0011291577783397
  75    0.0015015230215726
  76    -0.0017634956218148
 Sym= A
 Ene=               8
 Spin= Alpha
 Occup=    1.00000
   1    0.0018402920754252
   2      0.15255710260912
   3    -0.012233391156865
   4    -0.095781825954951
   5     0.049050486243719
   6     -0.28124441985928
   7    -0.026783998921066
   8    0.0061584689923257
   9    -0.044136320888083
  10     0.048103531791001
  11     0.027528800507067
  12     -0.01542323364782
  13     0.004166375536289
  14    -0.0051533458004078
  15    -0.00010281641795517
  16    -0.018228385243432
  17    0.0097267095080189
  18     0.020987256154219
  19    -0.0012745823618299
  20    -0.009370927630176
  21    0.0043648718203389
  22    0.0037759760362947
  23    -0.0077271284987576
  24     -0.00204158210388
  25     0.010506778514853
  26    0.0010738274747776
  27     0.002792339020114
  28    -0.0020564451376147
  29    0.00035169310771212
  30    0.0067556485123998
  31     0.012631497339189
  32    -0.013252447948183
  33    0.00012522038908207
  34    -0.010863559274419
  35    -0.012643365928784
  36    -0.0006697964614739
  37    -0.0064743666140323
  38    0.00019176188762987
  39    -0.00017629448665709
  40    9.3553674388102e-05
  41    -0.00024010250898521
  42    2.8544083116489e-05
  43    -0.0025575373421236
  44    0.0019298387193534
  45    0.00097182715009518
  46    -0.00017096496360502
  47    -0.0010179252141412
  48    -0.0069469332898622
  49    -0.011645829413855
  50    0.0008084493465101
  51    -0.00028553807823871
  52    -0.001305963672066
  53    -0.0099266161482144
  54    -0.020432184507294
  55    -0.0013878047495828
  56    0.0040402032275178
  57    -0.0096920383196348
  58    -0.0044064513714525
  59      0.15160725021603
  60      0.12246690587632
  61      0.15654611986512
  62     -0.08440932935295
  63      0.47287369859488
  64      0.10388405769772
  65    -0.055586981211428
  66      0.31142838125664
  67     0.017064086762495
  68     0.010895679872027
  69    -0.0057062063899377
  70    0.0014218163946275
  71    -0.0019756793602183
  72    -0.009564009807629
  73    -0.017492591790038
  74    -0.0012617058353984
  75    -0.00031774093648828
  76    -0.010375517284378
 Sym= A
 Ene=               9
 Spin= Alpha
 Occup=    1.00000
   1    6.7148388827933e-05
   2     0.017365829306782
   3    -0.010298100909003
   4     0.021201641536078
   5    0.0025661079615956
   6    -0.0096461623900684
   7    0.0044248673092529
   8    -0.0024872250754718
   9    -0.008479094856984
  10    0.0023067894869597
  11    -0.010744355701786
  12    0.00085530000713961
  13    -0.0025403106121709
  14    -0.0001916100623402
  15    -0.0018357169317183
  16     -0.15008197816032
  17     0.013697670069681
  18    -0.094333136718336
  19    0.00047397399277988
  20     -0.28723958755508
  21    -0.026195657394149
  22    0.0015628009200019
  23    -0.045215709906559
  24      -0.0504673437516
  25    -0.028029283897842
  26    0.00046588385250878
  27    -0.0056146710356295
  28    -0.00028008933548731
  29    0.0043869633959943
  30      -0.1517865836004
  31     -0.12269239862543
  32      0.15702155937075
  33     0.001013768313694
  34      0.48042827340546
  35      0.10411523715271
  36    0.00067030108114791
  37      0.31648909055893
  38    -0.017906301426426
  39    -0.011091986354214
  40    -6.3934480589971e-05
  41    -0.001943703634366
  42    -5.301580363114e-05
  43     0.012253940920382
  44     0.020888780648338
  45    -0.0014477321005611
  46    -0.0020698085008063
  47    -0.010174727354505
  48     0.011839842164002
  49      0.01798812352364
  50    -0.0013196485593189
  51    0.0018945266248381
  52    -0.010092642666597
  53      0.00219984359856
  54    -0.0018761311823665
  55    0.00095612010327256
  56    0.00029125714859974
  57    -0.00097253759395263
  58    -0.00034496853654714
  59    -0.0067433196971964
  60    -0.012646606209506
  61     -0.01333395708614
  62    0.0017821740446309
  63    -0.010660195093469
  64    -0.012744132040706
  65     0.001818402717541
  66    -0.0061781936832078
  67    -0.00017131626728591
  68    0.00017683642565337
  69    9.9964123123763e-05
  70    0.00026014631525537
  71    -3.4401240051896e-06
  72    0.0060118124261097
  73     0.011516176705519
  74    0.00076734771291111
  75    0.00057640744455978
  76    -0.0011900967610832
 Sym= A
 Ene=              10
 Spin= Alpha
 Occup=    1.00000
   1    -0.00054670655641957
   2    8.3931500000641e-05
   3    0.0052905943034862
   4    0.0023010722968828
   5    0.00017315931137366
   6    -0.0045735131565597
   7     0.010812574776497
   8    -0.003093708518458
   9    -0.0036385911377403
  10    -0.00037235618129698
  11    -0.0029909304319057
  12    5.2600743442756e-05
  13    -0.000197594150888
  14    6.344890766446e-05
  15    -0.0068778315695033
  16    -0.036399220749455
  17    -0.025389526864179
  18     -0.01740937985803
  19    8.3583375870519e-05
  20    -0.051271158220091
  21    0.00084013854820611
  22    0.00069881444067809
  23    -0.0023805792688357
  24     0.001712482540034
  25     0.001641565794593
  26    -0.00015715681193825
  27    0.00019916297705973
  28    -0.00019550879358765
  29    0.0064035610641662
  30      0.46898520551192
  31       0.5505006867096
  32     0.075666980263344
  33    -0.004708995732731
  34      0.23009100627794
  35     0.052438510473864
  36    -0.0035132866065315
  37      0.16238533436219
  38    -0.0042461419433283
  39    -0.0025693316798364
  40    6.4813149822511e-05
  41    -0.00035548418320541
  42    3.2247153513273e-05
  43    0.00042755554112392
  44     0.012059128067757
  45    -0.0012558565527691
  46    0.00081422964601465
  47    -0.0022385969326511
  48    0.00096072871920137
  49      0.01187975300131
  50    -0.0012970386837039
  51    -0.00087850293540518
  52    -0.0021894371707026
  53    -0.0011227612262094
  54      0.00158570364875
  55    -0.00036491399430912
  56    8.0107771200093e-05
  57    -0.00018384010075743
  58    -0.00037055849854391
  59    -0.0021857671304801
  60    -0.0020362077691917
  61    -0.0032948888916544
  62    0.00048742833230625
  63    -0.0021748697569342
  64    -0.0028379442032522
  65    0.00057375378912271
  66    -0.00095367187464553
  67    -6.0985774151087e-06
  68    0.00013374273908458
  69    -2.1932027085974e-05
  70    0.00013754298151352
  71    -3.3036697562686e-05
  72    -0.00026992303056203
  73     0.009635072746104
  74    2.5244560568806e-05
  75    -0.00023484987165564
  76    -0.00027521167508372
 Sym= A
 Ene=              11
 Spin= Alpha
 Occup=    1.00000
   1    -0.0068790148920143
   2    -0.036508825931601
   3    -0.025469122423011
   4     0.017449165991703
   5    -0.0088225526787202