[Molden Format]
made by pyscf v[2.0.1]
[Atoms] (AU)
C   1   6     0.00000000000000     0.00000000000000     0.00000000000000
C   2   6     2.85207482267819     0.00000000000000     0.00000000000000
F   3   9     3.65415199667903     0.00000000000000     2.45977207315200
H   4   1     3.58561868306314    -1.67891019462705    -0.93677358840720
H   5   1     3.58561868306314     1.67891019462705    -0.93677358840720
H   6   1    -0.73354386038494     0.98559208501610    -1.65072482246847
F   7   9    -0.80207717400084     1.22988603657600     2.13022510286915
H   8   1    -0.73354386038494    -1.92236567342330     0.02818537215858
[GTO]
1 0
 s    8 1.00
                  6665  0.00069158396281299
                  1000  0.0053257961529341
                   228   0.027060721042034
                 64.71    0.10165684614077
                 21.06     0.2745748236174
                 7.495    0.44829431892377
                 2.797    0.28490261071525
                0.5215   0.015194859206082
 s    8 1.00
                  6665  -0.00029326965268655
                  1000  -0.0023180354739745
                   228  -0.011499786038565
                 64.71  -0.046826727009787
                 21.06   -0.12846616875047
                 7.495   -0.30126627246289
                 2.797   -0.25563070233011
                0.5215      1.093793361012
 s    1 1.00
                0.1596                   1
 p    3 1.00
                 9.439   0.056979251590039
                 2.002    0.31320721150073
                0.5456    0.76037674173753
 p    1 1.00
                0.1517                   1
 d    1 1.00
                  0.55                   1

2 0
 s    8 1.00
                  6665  0.00069158396281299
                  1000  0.0053257961529341
                   228   0.027060721042034
                 64.71    0.10165684614077
                 21.06     0.2745748236174
                 7.495    0.44829431892377
                 2.797    0.28490261071525
                0.5215   0.015194859206082
 s    8 1.00
                  6665  -0.00029326965268655
                  1000  -0.0023180354739745
                   228  -0.011499786038565
                 64.71  -0.046826727009787
                 21.06   -0.12846616875047
                 7.495   -0.30126627246289
                 2.797   -0.25563070233011
                0.5215      1.093793361012
 s    1 1.00
                0.1596                   1
 p    3 1.00
                 9.439   0.056979251590039
                 2.002    0.31320721150073
                0.5456    0.76037674173753
 p    1 1.00
                0.1517                   1
 d    1 1.00
                  0.55                   1

3 0
 s    8 1.00
                 14710  0.00072067370873197
                  2207  0.0055504869689163
                 502.8   0.028254207662589
                 142.6    0.10639582836653
                 46.47    0.28668420124307
                  16.7    0.44843796582416
                 6.356    0.26464118141135
                 1.316   0.015326060993048
 s    8 1.00
                 14710  -0.00032119389049893
                  2207  -0.0025461915683188
                 502.8  -0.012643359507821
                 142.6   -0.05195749170489
                 46.47   -0.14344713812646
                  16.7   -0.33243762329603
                 6.356   -0.21865906750347
                 1.316     1.0955904138622
 s    1 1.00
                0.3897                   1
 p    3 1.00
                 22.67   0.064834021493887
                 4.977    0.34053535983101
                 1.347    0.73464640679382
 p    1 1.00
                0.3471                   1
 d    1 1.00
                  1.64                   1

4 0
 s    3 1.00
                 13.01   0.033498726389998
                 1.962    0.23480080117413
                0.4446     0.8136829578829
 s    1 1.00
                 0.122                   1
 p    1 1.00
                 0.727                   1

5 0
 s    3 1.00
                 13.01   0.033498726389998
                 1.962    0.23480080117413
                0.4446     0.8136829578829
 s    1 1.00
                 0.122                   1
 p    1 1.00
                 0.727                   1

6 0
 s    3 1.00
                 13.01   0.033498726389998
                 1.962    0.23480080117413
                0.4446     0.8136829578829
 s    1 1.00
                 0.122                   1
 p    1 1.00
                 0.727                   1

7 0
 s    8 1.00
                 14710  0.00072067370873197
                  2207  0.0055504869689163
                 502.8   0.028254207662589
                 142.6    0.10639582836653
                 46.47    0.28668420124307
                  16.7    0.44843796582416
                 6.356    0.26464118141135
                 1.316   0.015326060993048
 s    8 1.00
                 14710  -0.00032119389049893
                  2207  -0.0025461915683188
                 502.8  -0.012643359507821
                 142.6   -0.05195749170489
                 46.47   -0.14344713812646
                  16.7   -0.33243762329603
                 6.356   -0.21865906750347
                 1.316     1.0955904138622
 s    1 1.00
                0.3897                   1
 p    3 1.00
                 22.67   0.064834021493887
                 4.977    0.34053535983101
                 1.347    0.73464640679382
 p    1 1.00
                0.3471                   1
 d    1 1.00
                  1.64                   1

8 0
 s    3 1.00
                 13.01   0.033498726389998
                 1.962    0.23480080117413
                0.4446     0.8136829578829
 s    1 1.00
                 0.122                   1
 p    1 1.00
                 0.727                   1

[5d]
[7f]
[9g]

[MO]
 Sym= A
 Ene=               0
 Spin= Alpha
 Occup=    1.00000
   1       1.0022314485011
   2    -0.00077463194548851
   3    -0.011501666014004
   4    0.00054869042024597
   5    0.0011991392641577
   6    0.0019272222410667
   7    -0.00084302221412957
   8    0.00063767675859053
   9    0.0011013624769561
  10    8.9841944888841e-05
  11    1.2747746804523e-05
  12    -7.8896522097299e-07
  13    -0.00011380846645964
  14    -1.6770382529172e-05
  15    -0.00011736095669307
  16    -0.0006398084971839
  17    0.0024349279411229
  18    0.0011470930278666
  19    -1.5437446850546e-05
  20    -6.0123913022224e-05
  21    -0.00081385592025333
  22    -3.0392331328473e-06
  23    -0.0001008809692546
  24    0.00018391455455227
  25    4.1866725388884e-05
  26    3.183947966132e-05
  27    -0.00031400344682659
  28    1.2820845457507e-05
  29    -3.4370260272221e-05
  30    -4.1771299239921e-05
  31    1.0145104254145e-05
  32    -0.00012114922678438
  33    -1.7262309075548e-05
  34    1.6539942166455e-05
  35    -0.0003183636189901
  36    -6.6520902282469e-06
  37    7.9861275839538e-05
  38    -1.8748448780475e-05
  39    -1.342872402712e-08
  40    4.2729119941335e-06
  41    2.9531527755836e-05
  42    -1.3341170092345e-06
  43    0.00014531692019853
  44    0.00032548796785403
  45    -4.1347011134961e-05
  46    4.1715818473232e-05
  47    7.8199359443438e-06
  48    3.0129891804087e-05
  49    0.00016021458918514
  50    -3.7374406922549e-05
  51    -3.2912842991519e-05
  52    3.8662542817736e-06
  53    -0.0030740527745887
  54    0.00079113431984724
  55    -0.00011909295529256
  56    0.0003027945010185
  57    -0.00057157818073845
  58    0.00013836653248307
  59    8.8515671884849e-06
  60    -0.00024365930321562
  61    -0.0003761020608225
  62    0.0004733200021943
  63    0.0008120427297984
  64    -0.00047362186741055
  65    0.00072239948241813
  66    0.0012462151560385
  67    -0.00018384186983105
  68    0.00013641042838341
  69    -0.00023778370740337
  70    4.3902309064454e-05
  71    7.8660969750975e-05
  72    -0.0030275797094512
  73    0.00079943742386625
  74    -9.9697420681543e-05
  75    -0.00060563947953749
  76    -1.8055789077959e-05
 Sym= A
 Ene=               1
 Spin= Alpha
 Occup=    1.00000
   1    -0.00011642636756559
   2    -0.00064263406745892
   3    0.0024350064872805
   4    -0.0011399333038515
   5    -1.7376461151545e-05
   6    -5.2021523702376e-05
   7    0.00081747437867186
   8    -4.8040770404664e-05
   9    -8.8097076798757e-05
  10    0.00020751441672199
  11    -4.1604431225341e-05
  12    -1.3722487700777e-05
  13    -0.00030172447496533
  14    -9.8875491171679e-06
  15       1.0022317726863
  16    -0.0008257601087319
  17    -0.011530949316689
  18    -0.00057951652205997
  19    -7.599171386666e-05
  20     0.002303263385183
  21    0.00083126355327496
  22    -2.4093446052368e-06
  23     0.001287285566551
  24    8.1500885076726e-05
  25    -1.5693983768873e-06
  26    1.8481299622754e-05
  27    -0.00011711229210818
  28    -2.0861784869228e-05
  29    0.00013884123938933
  30    1.1626771539601e-05
  31    -0.00024034022355233
  32    0.00037736143463326
  33    -3.7571464557484e-06
  34    0.00093741692669735
  35    0.00047670049318462
  36    -2.3356444850263e-06
  37    0.0014370085578683
  38    -0.00030352649375309
  39    -0.00015728252638726
  40    3.419899556727e-08
  41    -2.4568484159902e-05
  42    -7.3319812783891e-08
  43    -0.0031217559363308
  44    0.00077976137620669
  45    0.00012026383128131
  46    -0.00055269174508194
  47    -0.00034503661539081
  48    -0.0030764588841647
  49    0.00078819162759564
  50    0.00010086302143792
  51    0.00052022919370408
  52    -0.00031993613839251
  53    0.00013673899504425
  54    0.00032254563247214
  55    4.1345239257713e-05
  56    -3.1567995866476e-05
  57    2.6931123645597e-05
  58    -3.4401759263365e-05
  59    -4.1825336701385e-05
  60    9.9136270038549e-06
  61    0.0001205996344416
  62    2.3598990341153e-05
  63    5.4477772584734e-06
  64    0.00031695405988448
  65    4.6073295085614e-05
  66    6.5285942647743e-05
  67    -1.5011472903346e-05
  68    5.6255048365061e-07
  69    -3.4201662501015e-06
  70    3.1808825074239e-05
  71    -1.2378766773101e-06
  72    2.6512156123045e-05
  73    0.00015793659380121
  74    3.751141007815e-05
  75    2.9956671188699e-05
  76    -1.2775304322726e-05
 Sym= A
 Ene=               2
 Spin= Alpha
 Occup=    1.00000
   1    -5.4119858557252e-05
   2    3.2153272140612e-05
   3    0.0031944091958065
   4    -0.00023638793602154
   5    0.00025590882932353
   6    0.00044092558976435
   7    8.2148671015583e-05
   8    0.00060252221413992
   9      0.00114423021223
  10    -8.4638194442889e-06
  11    1.0450299794856e-05
  12    -1.0621872623122e-05
  13    -9.9215242927897e-07
  14    -6.9988808869648e-06
  15    2.9379737016942e-05
  16    2.9059815974952e-05
  17    -0.0011091806020735
  18    0.00011680841905847
  19    -1.5376630485055e-05
  20    8.7704918745485e-06
  21    0.00049134794456951
  22    -4.8914172501869e-05
  23    -0.00029800095262712
  24    6.4668959822225e-05
  25    2.4878872802296e-05
  26    5.1742744295705e-05
  27    -1.7091231383001e-05
  28    -2.738322739026e-06
  29    -1.8632788289381e-05
  30    -3.6473346012723e-05
  31    0.00014336867040827
  32    -5.270131794262e-06
  33    -1.0300550679798e-05
  34    3.4768641784159e-05
  35    1.9156923441478e-05
  36    3.338241918147e-05
  37    -4.6474513605338e-05
  38    3.3959680677154e-06
  39    -4.4343297039846e-06
  40    4.5921713687086e-06
  41    -1.6875398255075e-05
  42    4.0456077395901e-06
  43    4.015870118694e-05
  44    0.00013217686517173
  45    -4.1166359353319e-05
  46    -4.0800572326028e-06
  47    4.6228048292475e-05
  48    0.00010147882339014
  49    -0.00012806050672437
  50    1.8654357059373e-05
  51    -8.7511696582065e-06
  52    2.3820995512077e-05
  53    -0.00026466513045535
  54    -0.00017075867500911
  55    -6.3904938535856e-06
  56    -6.0200597027606e-05
  57    -0.0001516042163583
  58       1.0009649301907
  59    -0.0037870973750965
  60    -0.010426095718938
  61    0.00095174943746398
  62    -0.0013534683160013
  63    -0.0022549975321356
  64    2.7769011020795e-05
  65    4.4039343757281e-05
  66    0.00017647462814557
  67    -9.9232946014199e-05
  68    8.1928039679764e-05
  69    -0.00012241592138766
  70    2.6841327170926e-05
  71    4.4153953771659e-05
  72    -0.00027930009547444
  73    -0.00023918390744286
  74    -1.1084442236652e-05
  75    -0.00010137355335312
  76    -0.00013077295526836
 Sym= A
 Ene=               3
 Spin= Alpha
 Occup=    1.00000
   1    2.9351160243945e-05
   2    2.8714368017101e-05
   3    -0.001109378210353
   4    -0.00011683866021536
   5    1.6759952635244e-05
   6    5.4528949072079e-07
   7    -0.00049136011456952
   8    -0.00010696147547036
   9    -0.00028227986851636
  10    8.2864620986588e-05
  11    -2.0260734561391e-05
  12    1.5281482437386e-05
  13    -6.5424966684541e-06
  14    -1.4790595271308e-05
  15    -5.4126182007669e-05
  16    3.382442533564e-05
  17    0.0031954543409756
  18    0.00023755206470633
  19    -1.4516015196345e-06
  20    0.00050821756220987
  21    -8.1652719949219e-05
  22    5.0217402445941e-05
  23    0.0012916503535398
  24    -1.3181102444986e-05
  25    -5.6114411731185e-06
  26    -1.4505564040475e-06
  27    -3.7245784948654e-06
  28    -1.1248562292754e-05
  29       1.0009649227308
  30    -0.0037873217758746
  31    -0.010426356324351
  32    -0.00095036726366454
  33    4.460518294412e-05
  34    -0.0026292997078107
  35    -2.6868402683263e-05
  36    5.0100425574426e-05
  37    0.00017512022898514
  38    -0.00015962345882826
  39    -9.3070235968183e-05
  40    -1.5895473008682e-06
  41    -8.052550623921e-06
  42    -2.7245486904325e-06
  43    -0.00026272263440674
  44    -0.0001703004637965
  45    6.3323541373319e-06
  46    -2.3485332805481e-05
  47    -0.00016134822584281
  48    -0.00027767762597721
  49    -0.00023874959976061
  50    1.1047947249886e-05
  51    2.2245352426607e-05
  52    -0.00016391038853903
  53    3.9078901749264e-05
  54    0.00013175808466453
  55    4.1117219376684e-05
  56    2.667006224788e-05
  57     3.79431154256e-05
  58    -1.8627069926041e-05
  59    -3.6409180949449e-05
  60    0.00014346579265532
  61    5.3448941274981e-06
  62    2.6320622158343e-05
  63    2.4851048093727e-05
  64    -1.9086042113782e-05
  65    -5.2078721658589e-05
  66    -2.3677159450715e-05
  67    9.2087330481195e-06
  68    1.819921517422e-06
  69    -7.0495348010796e-06
  70    -1.3523162116408e-05
  71    5.7204359364794e-06
  72    0.00010213679675957
  73    -0.00012772502414322
  74    -1.8629284254251e-05
  75    1.9514097702612e-05
  76    1.6266445645801e-05
 Sym= A
 Ene=               4
 Spin= Alpha
 Occup=    1.00000
   1    0.00097717115428902
   2     0.015210796506161
   3     0.044693610995493
   4     0.025019690386865
   5    -0.003665853350867
   6    -8.2158747587877e-05
   7     0.018251801859316
   8    -0.0092608167751923
   9    -0.024472279626334
  10    -0.0014065372552702
  11    0.00053255883651244
  12    0.0012198844595499
  13    0.00036999939020033
  14    -0.00052821939155118
  15    0.00097186961703964
  16    0.0019400261760575
  17    -0.0048197112216483
  18    0.0064436699851864
  19    0.0078913033951583
  20    -0.0011870885647046
  21     0.020561683535234
  22     0.029900617236458
  23    0.0085937519177528
  24    -0.010375513716399
  25     0.017312713201594
  26     0.028496713204903
  27    0.0084021395978736
  28    0.0069541170663228
  29    0.00088277654268295
  30    0.0020775873294071
  31    -0.0059488297269947
  32      0.38161469724535
  33      0.53125503978365
  34     -0.12594140867265
  35      0.26940250623594
  36      0.37490055530407
  37     -0.08645923585679
  38    0.0042127259352522
  39    -0.0065144008494712
  40    -0.0097962256027507
  41    -0.0019746480304764
  42    -0.0036004300361124
  43     0.020513368751613
  44     0.027414936831225
  45    -0.0011709282895068
  46    -0.00074848645044364
  47    0.0003387697474866
  48    -0.047505990790732
  49    -0.053969640246534
  50    -0.00096895933212849
  51    -0.001193697306187
  52    -0.0017007539312394
  53    -0.0080089191132444
  54    -0.019182591095637
  55    0.00067359406513515
  56    0.0012105507231287
  57    -0.00034448753972591
  58    -0.00075000210154562
  59    0.0014913203241771
  60     0.013176705327836
  61    0.0019704163996721
  62    -0.0049410870070081
  63    0.00078050386044951
  64    -0.00017677343819134
  65    -0.0033348998512244
  66    -0.0025901277982301
  67    0.00018703897203881
  68    -0.00065923280768496
  69    0.00036253524034906
  70    -0.00019450902744527
  71    0.00029415802360485
  72    0.00080924251705948
  73     -0.01387366905009
  74    0.0015118165650362
  75    -0.00031787048046437
  76    0.0010297604974526
 Sym= A
 Ene=               5
 Spin= Alpha
 Occup=    1.00000
   1    0.00051404868375529
   2     0.018706118150093
   3     0.062733255771057
   4     0.032453344351963
   5    0.0010856045368395
   6    0.0040220837975706
   7     0.046780136558864
   8     0.013544186948207
   9    -0.012851328174245
  10    -0.0011082747177261
  11    0.0012369335566715
  12    0.00018509538442395
  13    0.00020933819182769
  14    0.0014467880065832
  15    0.0017123048212572
  16    0.0022376187386533
  17    -0.024082093275951
  18     0.011253842423546
  19    -0.0060882784801998
  20    -0.0023571880796537
  21     0.042513920287371
  22    -0.022723464306794
  23     0.011469438082576
  24    -0.013838385257367
  25     0.023410792815189
  26    -0.021690804399854
  27     0.010322047794576
  28    -0.0047155488927619
  29    0.00076919499231333
  30    -0.010120038577622
  31    -0.021966305836323
  32       0.5046556337626
  33     -0.40310995154886
  34     -0.16688002865937
  35      0.35538091005521
  36     -0.28355754294416
  37     -0.11393622274774
  38      0.00515326387139
  39    -0.0087284513693065
  40    0.0075577550770602
  41    -0.0030310140064865
  42    0.0023054552665352
  43    -0.042445202327214
  44    -0.050692602647863
  45    -0.0013517880223948
  46    0.0012489614626668
  47    -0.0015871350783168
  48    0.0089028226307789
  49     0.011319362317949
  50    -0.0014149637102315
  51    0.00047412205731108
  52    -0.00034975758249091
  53    -0.0087975349738728
  54    -0.014909541487235
  55    0.0021516066478666
  56    0.00055561130507864
  57    -0.00017021255061466
  58    0.0015036100276451
  59     0.008355237048795
  60    0.0033860867281036
  61     0.011621106409156
  62    -0.0018671416834535
  63    0.0034807778505006
  64    -0.0010063793916816
  65    -0.004456013968581
  66      0.00027815450609
  67    0.00074529908165012
  68    -0.0011612443101781
  69    0.00041820537831774
  70    -0.0012606642195707
  71    0.00011477166585388
  72    0.0016212235906253
  73    0.0058111295863578
  74    0.0005705093076388
  75    7.350605500895e-05
  76    0.0016042329076288
 Sym= A
 Ene=               6
 Spin= Alpha
 Occup=    1.00000
   1    -0.001717998249494
   2    -0.0033221021704332
   3     0.023395109823006
   4     0.012049403118886
   5    -0.0051500710714607
   6    0.0069428476391625
   7     0.042995113560855
   8    -0.025534162369521
   9     0.001820245165014
  10     0.026932566532963
  11     0.018060667227726
  12    -0.0045630898134186
  13    -0.0029087134071013
  14     0.015837983814701
  15    -0.00050560286838292
  16    -0.018498227613887
  17    -0.062978447536323
  18     0.032790104408323
  19    -0.0014213002461734
  20    -0.0040957598018326
  21     0.046950717539444
  22      0.01806713987985
  23    0.0046453874960207
  24    0.00057879461149966
  25    0.0017032955963963
  26    0.00087118282376785
  27    -0.00055637141437161
  28    -0.0005706442024316
  29    -0.0014936392331372
  30    -0.008433081410888
  31    -0.0036993134345898
  32     0.011703684791643
  33    -0.0033864501720665
  34    -0.0019416048177745
  35    -0.00092383178313631
  36    -0.0039668645420105
  37    0.0021257875892151
  38    -0.0010541952404857
  39    -0.00095154509658271
  40    0.00020112205933116
  41    0.0010849916437414
  42    -0.00068549724478506
  43    0.0093322510501742
  44     0.015219903075649
  45    0.0021349371124259
  46    0.00061424505790495
  47    -0.0001211217002351
  48    -0.001507961014421
  49    -0.005522595810836
  50    0.00058782004847979
  51    -0.00075509473542792
  52    -0.0014373428648384
  53     0.039580223955089
  54     0.049455514451055
  55    -0.001456638889301
  56    0.0019675396494655
  57    0.00060438418448506
  58    -0.00077265051309602
  59     0.010431702526463
  60      0.02239174209799
  61      0.50957175766341
  62     -0.25905109802875
  63      0.34358351212152
  64      0.35879653327253
  65     -0.18384917472549
  66      0.23858655483348
  67    -0.009513108900388
  68    -0.0065098445162227
  69    0.0011476477518146
  70    0.00057703651737985
  71    -0.0063739172752424
  72    -0.0080462678698157
  73    -0.010372337014352
  74    -0.0013949685031885
  75    0.0005466464245746
  76    0.00014177880189408
 Sym= A
 Ene=               7
 Spin= Alpha
 Occup=    1.00000
   1    -0.0009585692824718
   2    -0.0027705804055422
   3    0.0039591476528128
   4    0.0068197083742972
   5     0.010152654330047
   6    -0.0035814117118019
   7     0.020244757742264
   8     0.022877217890257
   9    -0.022598556545009
  10     -0.01329215876001
  11     0.018228020598551
  12     0.018466556775133
  13    -0.021802353567338
  14    0.0022942520197774
  15    -0.0009594977925794
  16    -0.014500975250875
  17    -0.043555919280452
  18     0.024733819153958
  19    -0.0036625239095103
  20    0.0016104877710296
  21     0.017706238784656
  22    0.0037844658025787
  23     0.025531246733059
  24    5.0802830525734e-05
  25    0.00020137315328139
  26    0.0015286707878096
  27    -0.0011775369612208
  28    0.00058016916886806
  29    0.00075798803717096
  30    -0.0014086739102274
  31    -0.013070174294515
  32    0.0018006601376094
  33    -0.0045916659993453
  34    0.0018487727671123
  35    -0.0002168446228769
  36    -0.0014975654472885
  37    0.0039099974542221
  38    -0.00041386247471516
  39    -0.00041172013026984
  40    0.0001317250371835
  41    3.9292315738741e-05
  42    -0.00057611813023209
  43    0.0088189734802764
  44     0.019372695137322
  45    0.00061287070280301
  46    0.0012572720837335
  47    -0.00027865844888772
  48    -0.00097737850094907
  49     0.013573369547452
  50    0.0015102334367294
  51    -0.00081010245868101
  52    -0.0007107699953872
  53    -0.020026927510544
  54    -0.027474528953117
  55    -0.0010978145593349
  56    -0.00080595369219544
  57    0.00010724063462952
  58    -0.00086756747576452
  59    -0.0018680815013952
  60    0.0060445213806652
  61      0.37520502441921
  62      0.52605046152854
  63     -0.16123033175143
  64      0.26485934238566
  65      0.36988737138657
  66     -0.11575247144727
  67    0.0044346590049933
  68    -0.0073723767418214
  69     -0.00723525046738
  70    0.0068949348994065
  71    -5.6235959857399e-05
  72     0.044757570852825
  73     0.053081587823343
  74    -0.0010524217503299
  75    -0.00036605302923996
  76    0.0020704685533056
 Sym= A
 Ene=               8
 Spin= Alpha
 Occup=    1.00000
   1     -0.00287990286714
   2     -0.15683414131121
   3    0.0084677016963842
   4     0.096856181780978
   5     -0.14552563169024
   6      -0.2491953526253
   7     0.031286034495259
   8    -0.026062189935601
   9    -0.044732523345456
  10    -0.029397180440771
  11     0.024275306883659
  12    -0.040141721661276
  13    0.0062715411044655
  14     0.014738620678095
  15    -0.0010112012522456
  16    0.0093979226923988
  17    -0.008180919589677
  18    -0.026856818734066
  19    0.0013228246875193
  20    -0.0043186913582466
  21    -0.007244491572192
  22    0.00036811500987711
  23    -0.00069991908304256
  24    0.0048557998247885
  25     0.010121524352695
  26     0.001249316938904
  27    -0.0025422329111972
  28     0.005518214642271
  29    -7.3940714810094e-05
  30    0.0036207485432867
  31    0.0063986766127181
  32    -0.0049319189282013
  33    -0.00026442076418448
  34    -0.0076915117895469
  35    -0.003886169583487
  36    0.00081344752778059
  37    -0.0039986644728856
  38    -0.00015461401770634
  39    0.00032161208656945
  40    5.1122302008661e-05
  41    -0.00026156426149941
  42    0.00019340612728061
  43    -0.016198009778717
  44    -0.015836796991323
  45    -0.00070735457109402
  46    0.00017216588676913
  47    0.0012238403436859
  48    0.0027891360795994
  49    -0.0019333160816796
  50    -0.0017247276030775
  51    -0.00072406171226223
  52    0.00057434849319064
  53    0.0080574845898785
  54       0.0209033482173
  55    0.0013677068923252
  56    -0.0031815482123735
  57    -0.010030011184189
  58     0.004057249015401
  59     -0.14964979164221
  60     -0.11476731171784
  61     -0.15506414401316
  62      0.23784935867343
  63      0.41582593535721
  64     -0.10302239994498
  65      0.15567866502588
  66      0.27271369660313
  67     -0.01126995007613
  68    0.0094570929235974
  69    -0.014360992845827
  70    0.0022930287345753
  71    0.0053316685313609
  72    0.0098274795865159
  73     0.022156299737319
  74    0.0012981198652363
  75    -0.0068789080812594
  76    -0.0077008266769077
 Sym= A
 Ene=               9
 Spin= Alpha
 Occup=    1.00000
   1    -0.0010581280992707
   2    0.0097187752662272
   3    -0.0080035371845705
   4     0.026230916606016
   5    -0.0023333263770911
   6    -0.0042199886667432
   7    0.0070214338286792
   8    -0.00032886862251398
   9    -0.00076060439614142
  10    0.0045419876306538
  11     -0.01154794357251
  12     0.001864093196698
  13    -0.0026892223567593
  14    -0.00030773343379701
  15    -0.002905772321419
  16     -0.15464691657489
  17    0.0096942057422432
  18     -0.09525552958538
  19    0.0015981232233926
  20     -0.29030750635245
  21    -0.030609274428702
  22    0.00030329791248372
  23    -0.052483943668232
  24    -0.049911678395495
  25    -0.028384769933475
  26    0.0007379532317583
  27    -0.0056270407197332
  28    0.00058011469958506
  29    0.0040342944717178
  30     -0.14980575661183
  31     -0.11489756508133
  32      0.15562284236128
  33     0.001986670314517
  34      0.47904907675237
  35      0.10327631116354
  36    0.0015584405123295
  37      0.31409675390599
  38    -0.018273596236989
  39    -0.010880828346647
  40    -0.0002820699765706
  41    -0.0017854373936783
  42    -0.00011367816660667
  43      0.01021730012605
  44     0.021461680352583
  45    -0.0014141473818415
  46    -0.0020490484594635
  47    -0.010217794603232
  48      0.01208388089162
  49     0.022593863878664
  50    -0.0013513437379251
  51    0.0018797473908785
  52    -0.010041103893273
  53     -0.01465598050467
  54    -0.015277749652951
  55    0.00074917641975602
  56    0.00040243868547387
  57    0.0012398229689933
  58    -7.4427326789085e-05
  59    0.0036149129600108
  60     0.006411412634987
  61    0.0049891912258263
  62    -0.0037018459213598
  63    -0.0067114863027835
  64    0.0039920704719922
  65    -0.0028340268929802
  66    -0.0029392167234863
  67    1.9233502742617e-05
  68    -0.00037001551275646
  69    -0.00026016567592391
  70    -0.00017204021290821
  71    1.6012771708698e-05
  72    0.0023505397575659
  73    -0.0020949913958561
  74    0.0016852280732249
  75    0.00091755585723515
  76    0.00010381653083535
 Sym= A
 Ene=              10
 Spin= Alpha
 Occup=    1.00000
   1    -0.0012020074530353
   2    -0.0017182691914829
   3     0.011128311692275
   4    0.0037490872228478
   5    -0.0008357398520217
   6    -0.0033920678249488
   7    0.0095484501863463
   8    -0.00096116991460975
   9    -0.00013572724931608
  10    8.7288670261145e-06
  11    -0.0036412262945514
  12    0.00067169036194192
  13    -0.0002432921471479
  14    -0.00020974419072591
  15    -0.0071820002690588
  16    -0.037077797695599
  17    -0.026090284017858
  18     -0.01736403335907
  19    0.00024560960646121
  20    -0.051269559212008
  21    -0.0012718716592522
  22    -0.00011646167459458
  23    -0.0047230674348388
  24    0.0018874533622145
  25    0.0018728249444633
  26    -0.00020128231815883
  27    0.00034639186343827
  28    -5.5050604967262e-05
  29    0.0059779308597883
  30      0.47023764660252
  31      0.55244526489709
  32     0.084395245378746
  33    -0.0081838307886094
  34       0.2246138236574
  35     0.059942598156232
  36    -0.0063437851628423
  37      0.15726774022269
  38    -0.0042178382203845
  39    -0.0025125602984796
  40    1.9488600501062e-05
  41    -0.00044199615600429
  42    8.8866872011985e-05
  43    -0.00080997948219415
  44     0.012166271065736
  45    -0.0012589168300589
  46    0.00081629483729345
  47    -0.0022132704316508
  48    0.00080534449063666
  49     0.013444622810085
  50    -0.0012470249232352
  51    -0.00088152838190492
  52    -0.0020857572702837
  53    -0.003418481961904
  54    -0.0025562393793758
  55    0.00066035831932347
  56    -0.0003684779582782
  57    0.0004506847177027
  58    -0.00020739862491503
  59    -0.00032304750095421
  60    0.00074094614862244
  61    -0.0015680889307493
  62    -0.00052820010083364
  63    -0.0036390117974536
  64    -0.00024462843104851
  65    -0.00063607788758561
  66    -0.00066085687971802
  67    -9.9762546100876e-05
  68    0.00016011455056456
  69    -0.0001073258557768
  70    0.00010769590282208
  71    -4.7012593399062e-05
  72    -0.00080589874879872
  73    -0.00013903685856193
  74    -8.5302367344975e-05
  75    4.6311478614094e-05
  76    -0.00023728119222437
 Sym= A
 Ene=              11
 Spin= Alpha
 Occup=    1.00000
   1    -0.0071791325524164
   2     -0.03713291261803
   3     -0.02612674590111
   4     0.017416411350362
   5    -0.025768902060775