[Molden Format]
made by pyscf v[2.0.1]
[Atoms] (AU)
C   1   6     0.00000000000000     0.00000000000000     0.00000000000000
C   2   6     2.85207482267819     0.00000000000000     0.00000000000000
F   3   9     3.65415199667903     0.00000000000000     2.45977207315200
H   4   1     3.58561868306314    -1.67891019462705    -0.93677358840720
H   5   1     3.58561868306314     1.67891019462705    -0.93677358840720
H   6   1    -0.73354386038494     0.36157246902272    -1.88826628079960
F   7   9    -0.80207717400084     1.88429472797734     1.58111101127508
H   8   1    -0.73354386038494    -1.79679287274265     0.68397336938011
[GTO]
1 0
 s    8 1.00
                  6665  0.00069158396281299
                  1000  0.0053257961529341
                   228   0.027060721042034
                 64.71    0.10165684614077
                 21.06     0.2745748236174
                 7.495    0.44829431892377
                 2.797    0.28490261071525
                0.5215   0.015194859206082
 s    8 1.00
                  6665  -0.00029326965268655
                  1000  -0.0023180354739745
                   228  -0.011499786038565
                 64.71  -0.046826727009787
                 21.06   -0.12846616875047
                 7.495   -0.30126627246289
                 2.797   -0.25563070233011
                0.5215      1.093793361012
 s    1 1.00
                0.1596                   1
 p    3 1.00
                 9.439   0.056979251590039
                 2.002    0.31320721150073
                0.5456    0.76037674173753
 p    1 1.00
                0.1517                   1
 d    1 1.00
                  0.55                   1

2 0
 s    8 1.00
                  6665  0.00069158396281299
                  1000  0.0053257961529341
                   228   0.027060721042034
                 64.71    0.10165684614077
                 21.06     0.2745748236174
                 7.495    0.44829431892377
                 2.797    0.28490261071525
                0.5215   0.015194859206082
 s    8 1.00
                  6665  -0.00029326965268655
                  1000  -0.0023180354739745
                   228  -0.011499786038565
                 64.71  -0.046826727009787
                 21.06   -0.12846616875047
                 7.495   -0.30126627246289
                 2.797   -0.25563070233011
                0.5215      1.093793361012
 s    1 1.00
                0.1596                   1
 p    3 1.00
                 9.439   0.056979251590039
                 2.002    0.31320721150073
                0.5456    0.76037674173753
 p    1 1.00
                0.1517                   1
 d    1 1.00
                  0.55                   1

3 0
 s    8 1.00
                 14710  0.00072067370873197
                  2207  0.0055504869689163
                 502.8   0.028254207662589
                 142.6    0.10639582836653
                 46.47    0.28668420124307
                  16.7    0.44843796582416
                 6.356    0.26464118141135
                 1.316   0.015326060993048
 s    8 1.00
                 14710  -0.00032119389049893
                  2207  -0.0025461915683188
                 502.8  -0.012643359507821
                 142.6   -0.05195749170489
                 46.47   -0.14344713812646
                  16.7   -0.33243762329603
                 6.356   -0.21865906750347
                 1.316     1.0955904138622
 s    1 1.00
                0.3897                   1
 p    3 1.00
                 22.67   0.064834021493887
                 4.977    0.34053535983101
                 1.347    0.73464640679382
 p    1 1.00
                0.3471                   1
 d    1 1.00
                  1.64                   1

4 0
 s    3 1.00
                 13.01   0.033498726389998
                 1.962    0.23480080117413
                0.4446     0.8136829578829
 s    1 1.00
                 0.122                   1
 p    1 1.00
                 0.727                   1

5 0
 s    3 1.00
                 13.01   0.033498726389998
                 1.962    0.23480080117413
                0.4446     0.8136829578829
 s    1 1.00
                 0.122                   1
 p    1 1.00
                 0.727                   1

6 0
 s    3 1.00
                 13.01   0.033498726389998
                 1.962    0.23480080117413
                0.4446     0.8136829578829
 s    1 1.00
                 0.122                   1
 p    1 1.00
                 0.727                   1

7 0
 s    8 1.00
                 14710  0.00072067370873197
                  2207  0.0055504869689163
                 502.8   0.028254207662589
                 142.6    0.10639582836653
                 46.47    0.28668420124307
                  16.7    0.44843796582416
                 6.356    0.26464118141135
                 1.316   0.015326060993048
 s    8 1.00
                 14710  -0.00032119389049893
                  2207  -0.0025461915683188
                 502.8  -0.012643359507821
                 142.6   -0.05195749170489
                 46.47   -0.14344713812646
                  16.7   -0.33243762329603
                 6.356   -0.21865906750347
                 1.316     1.0955904138622
 s    1 1.00
                0.3897                   1
 p    3 1.00
                 22.67   0.064834021493887
                 4.977    0.34053535983101
                 1.347    0.73464640679382
 p    1 1.00
                0.3471                   1
 d    1 1.00
                  1.64                   1

8 0
 s    3 1.00
                 13.01   0.033498726389998
                 1.962    0.23480080117413
                0.4446     0.8136829578829
 s    1 1.00
                 0.122                   1
 p    1 1.00
                 0.727                   1

[5d]
[7f]
[9g]

[MO]
 Sym= A
 Ene=               0
 Spin= Alpha
 Occup=    1.00000
   1    -0.00010767234296883
   2    -0.00063119548206665
   3    0.0023758774229716
   4    -0.0011381104599611
   5    -3.7330069948585e-05
   6    -4.8219969196186e-05
   7    0.00089851986509722
   8    3.5623423596694e-05
   9    -5.7148179634535e-05
  10    0.00020744589129382
  11    -3.5979731421895e-05
  12    -6.9264046390982e-06
  13    -0.0002853145478586
  14    -1.2663944853636e-05
  15       1.0022288434152
  16    -0.00083776810158852
  17    -0.011570974921004
  18    -0.00055962846529722
  19    -0.00010293443122415
  20    0.0023168773845605
  21    0.00086010261212446
  22    -3.0273391690788e-05
  23    0.0012757558982211
  24    9.1680956985386e-05
  25    7.9862264700962e-06
  26    2.4191785193078e-05
  27    -0.00012053623758797
  28    -2.1266315770673e-05
  29    0.00014094091441376
  30    1.784506266903e-05
  31    -0.00024830745570687
  32    0.00037349961267245
  33    -5.9650170420053e-06
  34    0.00093482637986077
  35    0.00046816793257943
  36    7.2472563914107e-06
  37    0.0014445697147021
  38    -0.00030611883714606
  39    -0.00015772475533369
  40    -5.5093931989015e-07
  41    -2.5040079370276e-05
  42    -2.1530754671129e-07
  43    -0.0031214275530313
  44    0.00076061088176513
  45    0.00011886582768114
  46    -0.00055535344364415
  47    -0.0003496585524302
  48    -0.0030705823484799
  49    0.00078793518757364
  50    9.6243169184878e-05
  51    0.00051888129012346
  52    -0.00031788409819557
  53    0.00016266693282584
  54    0.00037817214393059
  55    4.5491729250135e-05
  56    -2.5494087223693e-05
  57    3.7683976060276e-05
  58    -2.3223360007323e-05
  59    -8.7167099984279e-06
  60    -1.084486107207e-05
  61    0.00015240817833173
  62    2.2293776511737e-05
  63    -2.2201954066363e-05
  64    0.00030370927148138
  65    4.7518242114882e-05
  66    4.7073618786655e-05
  67    -1.165308689759e-05
  68    2.5960489674591e-06
  69    2.6225910895524e-06
  70    2.9522860724449e-05
  71    -1.8919920890537e-06
  72    4.4080702593357e-06
  73    0.00021731244675722
  74    4.9063668710987e-05
  75    1.8329246610607e-05
  76    -2.7691582567013e-05
 Sym= A
 Ene=               1
 Spin= Alpha
 Occup=    1.00000
   1       1.0022285640958
   2    -0.00078605385130918
   3    -0.011541599129421
   4    0.00052867401170003
   5     0.001812501266389
   6    0.0013900932393143
   7    -0.00087205915640852
   8    0.00098440826925112
   9    0.00078852910946222
  10    9.3812420241767e-05
  11    1.1830413908093e-05
  12    2.0742746384808e-05
  13    -0.0001207957851025
  14    -1.8950986791525e-05
  15    -0.00010861549827283
  16    -0.00062879389475875
  17     0.002375578374093
  18    0.0011449329164204
  19    -1.9887810053275e-05
  20    -6.5150947699472e-05
  21    -0.0008952117630507
  22    -6.762695116183e-05
  23    -1.0011151785873e-05
  24    0.00016313774515297
  25    3.3397973219497e-05
  26    3.5272997156481e-05
  27    -0.00030949231907182
  28    2.0337575746052e-05
  29    -2.3212607030528e-05
  30    -8.9014752706162e-06
  31    -1.1004079871552e-05
  32    -0.00015259616059023
  33    -3.0588524283124e-05
  34    3.0515989763039e-06
  35    -0.00030471149422768
  36    6.4394691475858e-06
  37    6.6993515234967e-05
  38    -1.4087863582708e-05
  39    -3.581128526831e-07
  40    5.1284028091364e-06
  41    2.8014609947348e-05
  42    -3.1637267993068e-06
  43    0.00017217622836124
  44    0.00038145370711937
  45    -4.5487241265621e-05
  46    4.6206405068988e-05
  47    5.0587023442053e-06
  48    6.2349022824431e-06
  49    0.00021973532058556
  50    -4.8832659014452e-05
  51    -3.3421566659376e-05
  52    -3.8569757790949e-06
  53    -0.0030745567003081
  54    0.0007716106782096
  55    -0.00011772514641228
  56    8.7217538026831e-05
  57    -0.00064569177862212
  58    0.00014046159692697
  59    1.5062197955638e-05
  60    -0.0002516010735077
  61    -0.00037217189120029
  62    0.00072200880772881
  63    0.00059779810959955
  64    -0.0004650480353869
  65    0.0011047896989237
  66    0.00093607658363386
  67    -2.425108204183e-05
  68    0.00010167126493416
  69    -0.00027292450220299
  70    0.00013705476920062
  71    0.00012081363525106
  72     -0.00302022105225
  73    0.00079947138693785
  74    -9.5043265512019e-05
  75    -0.00057273819149686
  76    0.0001904240114512
 Sym= A
 Ene=               2
 Spin= Alpha
 Occup=    1.00000
   1    -4.3832052766328e-05
   2    6.1261701090857e-05
   3    0.0030665222784631
   4    -0.00025035486722564
   5    0.00040968594364062
   6    0.00033754127103675
   7    2.6025492026655e-05
   8    0.00093767631656665
   9    0.00087536090494358
  10    -4.4743967100376e-06
  11    -9.8367574487495e-07
  12    -9.7968964966128e-06
  13    1.3733917783333e-06
  14    -1.2624558661937e-05
  15    2.1367268714759e-05
  16    2.455531252956e-05
  17    -0.0009283351886043
  18    0.00012845915735352
  19    -1.149524143365e-05
  20    1.0724852631168e-05
  21    0.00038898495342476
  22    -7.3256284095333e-05
  23    -0.00016627356999115
  24    3.4967227105206e-05
  25    1.548456797384e-05
  26    5.3711271235779e-05
  27    -5.3778087524895e-05
  28    5.1536069486109e-06
  29    1.421459100833e-05
  30    2.8226651253493e-05
  31    5.4764771573642e-06
  32    -3.0457882574988e-05
  33    -5.6140902787803e-06
  34    2.2160910238703e-05
  35    9.8032864229638e-05
  36    1.4757169206978e-05
  37    -2.2681641862087e-05
  38    7.213539620613e-06
  39    -7.534337813251e-06
  40    5.863219373236e-06
  41    -1.7165922084059e-05
  42    7.8909105947434e-06
  43    1.5477829194808e-05
  44    0.00019007272911435
  45    -3.3752566190356e-05
  46    4.9635031314868e-06
  47    2.0594298345851e-05
  48    6.8524403798609e-05
  49    -0.00015579123946679
  50    5.8173238762978e-05
  51    -1.333650990435e-05
  52    -5.5691810661146e-06
  53    -0.00025348608286444
  54    -0.00017884990978706
  55    -5.7771699017847e-06
  56    -0.00010628668974101
  57    -0.00011682177145991
  58       1.0009657655257
  59    -0.0040013736672817
  60    -0.010694981579438
  61    0.00089529574066992
  62    -0.0021157726321004
  63    -0.0017790556142662
  64    -3.4912764418885e-05
  65    4.480248382792e-05
  66    5.2644520042808e-05
  67    -1.2110177402947e-05
  68    6.0206652349772e-05
  69    -0.00013852737153544
  70    7.1893282641833e-05
  71    6.9655058398512e-05
  72    -0.00027623211497516
  73    -0.00025388567272013
  74    -1.3581398760046e-05
  75    -0.00013872961249604
  76    -8.9733421523762e-05
 Sym= A
 Ene=               3
 Spin= Alpha
 Occup=    1.00000
   1    2.1344313042448e-05
   2    2.4440184741265e-05
   3    -0.00092835031152938
   4    -0.0001285504453199
   5    1.464507915841e-05
   6    -8.2520804771662e-07
   7    -0.00038900959591138
   8    -8.0630465383155e-05
   9    -0.00016261896439314
  10    7.723797076513e-05
  11    -1.3996838836085e-05
  12    1.2664951235811e-05
  13    -2.9342723645737e-05
  14    -8.5172747469252e-06
  15    -4.385366871189e-05
  16    6.2500996252548e-05
  17    0.0030672752194636
  18    0.00025126600596174
  19    -4.8388588546764e-06
  20    0.00052943682728267
  21    -2.5611073605795e-05
  22    6.7819550643009e-05
  23    0.0012805758700457
  24    -9.7187288427169e-06
  25    1.0239000362682e-05
  26    -4.8299511970581e-06
  27    -1.6439766807287e-06
  28    -7.3115734601322e-06
  29       1.0009657789778
  30    -0.0040003660325613
  31    -0.010693841686161
  32    -0.00089366434160398
  33    -2.639148261327e-06
  34    -0.0027635569683731
  35    3.6019829821016e-05
  36    1.1682660020602e-05
  37    6.8739410421562e-05
  38    -0.00015612331018822
  39    -9.2103770304697e-05
  40    1.0135706072511e-06
  41    -1.1273170633562e-05
  42    -1.3481531403669e-06
  43    -0.00025204498794413
  44    -0.00017848725003648
  45    5.7338271869814e-06
  46    -2.1028572749223e-05
  47    -0.00015648681421215
  48    -0.00027481859155001
  49    -0.00025342369555785
  50    1.3541912424041e-05
  51    2.030039650846e-05
  52    -0.00016393321626945
  53    1.4317632737493e-05
  54    0.00018955879687973
  55    3.3700012771215e-05
  56    1.2579804734928e-05
  57    1.698976910603e-05
  58    1.421635216247e-05
  59    2.8254129352124e-05
  60    5.5270570436371e-06
  61    3.0492124151478e-05
  62    2.0606659948209e-05
  63    9.8474909919989e-06
  64    -9.799699287402e-05
  65    -2.6790408466877e-05
  66    -3.412999455817e-06
  67    1.4571423988243e-05
  68    -1.1983920672923e-06
  69    -1.2859553808762e-06
  70    -1.2920687565245e-05
  71    1.0844356255322e-05
  72    6.9620275751026e-05
  73    -0.0001553015351443
  74    -5.8137157013489e-05
  75    4.3591790354483e-06
  76    -1.3804008393807e-05
 Sym= A
 Ene=               4
 Spin= Alpha
 Occup=    1.00000
   1    0.00097746841117616
   2     0.017900943880714
   3     0.054179268824642
   4     0.028381199826925
   5    -0.0065344190670887
   6    0.0022143241484818
   7     0.015967745396149
   8    -0.019339450033572
   9    -0.024450981579415
  10    -0.0020376397279612
  11    0.0003424629801423
  12    0.0008095898944245
  13    -7.3678150619557e-05
  14    -0.00050229980361716
  15    0.00097444244945171
  16    0.0020289273933704
  17    -0.0015409272349057
  18    0.0068569342271079
  19    0.0070927024899471
  20    -0.001472257597602
  21     0.020775116426062
  22     0.028405104839142
  23    0.0099390031004965
  24    -0.012182974731699
  25     0.019713499403383
  26     0.025369847113248
  27    0.0096970294404978
  28    0.0061187762174852
  29    0.0010881407568446
  30    0.0026390679673698
  31    -0.0071741410957108
  32      0.44195574431293
  33      0.47679775244962
  34     -0.14368482978981
  35      0.31279226788748
  36      0.33637918578553
  37    -0.099045177556478
  38    0.0048356712191542
  39    -0.0074383267854884
  40    -0.0087105193147106
  41    -0.002417480068089
  42    -0.0033242226675022
  43     0.014350547528883
  44     0.021499040463802
  45    -0.0012764195232197
  46    -0.00068582896524538
  47    0.00015714224576161
  48     -0.04550502571848
  49     -0.05073712757985
  50    -0.0011193339583912
  51    -0.001151261775831
  52    -0.0016637126883035
  53    -0.011828029506331
  54    -0.023471515607344
  55    0.0016494359839255
  56    0.00087477135620592
  57    -0.00081286064515064
  58    -0.00099892769185941
  59    0.00016414410996962
  60     0.013112889109489
  61    -0.0001872416222687
  62    -0.0028253493565629
  63    0.00065659746899853
  64    -0.0015743298878144
  65    -0.0032869276877384
  66    -0.0008464199745603
  67    -0.00016594478947501
  68    -0.00048067829730152
  69    0.00022727361509553
  70    -9.0938187365979e-05
  71    -0.00010333594874396
  72     0.004402780502587
  73     -0.02124603851012
  74    -0.00025179164249407
  75    -0.00011373043371999
  76    0.00062355940157778
 Sym= A
 Ene=               5
 Spin= Alpha
 Occup=    1.00000
   1    0.0011203025010867
   2     0.018019695017405
   3     0.050990300395109
   4     0.028678787972973
   5    0.0022313557295506
   6     0.003490455035397
   7      0.03758608091701
   8     0.016972823433635
   9    -0.019913745483554
  10    -0.0015855713060463
  11    0.00058380635908515
  12    0.00011633498417961
  13    0.00021537721842821
  14    0.0015015494922229
  15    0.0012594463457509
  16    0.0016603211763257
  17    -0.016147913770423
  18    0.0090134775966787
  19    -0.0070852309089895
  20    -0.0026014798707802
  21     0.034835277888021
  22     -0.02635382794785
  23     0.011006226796367
  24    -0.012368780411573
  25     0.020503865511378
  26    -0.025111528146875
  27    0.0091435740819045
  28    -0.0053309843081097
  29    0.00071317534156107
  30    -0.0019218687309445
  31    -0.011865434153297
  32      0.45341430916871
  33     -0.46620499882623
  34     -0.14672958381265
  35       0.3200756839522
  36      -0.3283963869173
  37     -0.10056261731196
  38    0.0046012182642675
  39    -0.0077305260156391
  40    0.0086664024503943
  41    -0.0029000852381427
  42    0.0028075827675262
  43    -0.044999273537605
  44    -0.053291617909317
  45    -0.0011430693226528
  46    0.0013141428493051
  47    -0.0016701691936317
  48     0.014070993853057
  49     0.017818977952535
  50    -0.0011776022561936
  51    0.00073054140265813
  52    -0.00025701540966681
  53    -0.0093404663525032
  54    -0.020195664954756
  55    0.0016467107876346
  56    0.00010065743716605
  57    -0.00057557981657033
  58    0.0014076449122023
  59    0.0059552992424676
  60    -0.00095047502456002
  61    0.0076762882714589
  62    -0.0024332807577048
  63    0.0049628137824407
  64    -0.0032977989693354
  65    -0.0035079548698674
  66    0.0026811564480134
  67    0.00020523184840087
  68    -0.0009658199584203
  69    0.00033050295008118
  70    -0.0007962156553467
  71    4.1061482636579e-05
  72     0.005223992128366
  73     0.012546317734439
  74    0.00065474075855201
  75    0.00092743775269758
  76    0.0010508663306173
 Sym= A
 Ene=               6
 Spin= Alpha
 Occup=    1.00000
   1    -0.0012534014052934
   2    -0.0026019978199621
   3     0.015482554602642
   4    0.0096689810637826
   5    -0.0032863399124643
   6    0.0094480621803621
   7     0.035049216787219
   8    -0.025623084635468
   9     0.013878471058441
  10      0.02738865769519
  11    0.0090275155707193
  12      0.01048590941855
  13    -0.00047373384172101
  14      0.01914050501071
  15    -0.0011016350242394
  16     -0.01769173060709
  17     -0.05080040494744
  18     0.028751623659374
  19    -0.0017642792036333
  20    -0.0039822544296832
  21     0.037552843051528
  22     0.025932996590051
  23    -0.00012961006477285
  24    0.00016895463288938
  25    0.0014055813276749
  26    0.0012512391221291
  27    -0.0010534679447323
  28    -0.00048769808432559
  29    -0.0014032728147933
  30    -0.006022692592247
  31    0.00073589842086581
  32     0.007753772334505
  33    -0.0053191854031823
  34    -0.0011958785059534
  35    -0.0031932682978865
  36    -0.0042341546202857
  37    0.0010685695588166
  38    -0.00070767964396791
  39    -0.00058832800384289
  40    0.00016625936160005
  41    0.00050550723416405
  42    -0.00076420848969004
  43    0.0099441587832685
  44     0.020391267824947
  45    0.0016204222982793
  46    0.00054077720284685
  47    0.00030806121432427
  48    -0.005297627050878
  49    -0.012436920990124
  50    0.00065518609032067
  51    -0.00020719025343503
  52    -0.0013956538143442
  53     0.042249519551939
  54     0.052292813570566
  55    -0.0012429565204472
  56    0.0021632885216304
  57    -0.00010657145746617
  58    -0.00070994131009465
  59    0.0022320098627531
  60     0.012227496730476
  61      0.45431194762351
  62     -0.18673042536749
  63      0.45053797505833
  64      0.32066936582277
  65     -0.13359515127234
  66      0.31543840749934
  67    -0.0094356695534449
  68    -0.0028345910596978
  69    -0.0040087197212424
  70    0.00012502103428405
  71    -0.0077474483703421
  72    -0.013387000354336
  73    -0.017384901101415
  74    -0.0011357517067243
  75    0.00067255633787863
  76    -0.00034000303820559
 Sym= A
 Ene=               7
 Spin= Alpha
 Occup=    1.00000
   1    -0.0025307072112151
   2     -0.15577442088653
   3      0.00483739539407
   4     0.096297475828353
   5     -0.22100017125635
   6     -0.18386986300439
   7     0.027617697684961
   8    -0.038714899159387
   9    -0.032921957573521
  10    -0.0026033332440342
  11     0.017783570190979
  12    -0.045271206788928
  13     0.021555268574611
  14     0.022523297597211
  15    -0.00095980355601124
  16     0.010290065107414
  17    -0.0056458707597439
  18    -0.025566394645917
  19    0.0023253682142824
  20    -0.0032548306391531
  21     -0.01145076602166
  22    0.00029623315471727
  23    0.0017603896144859
  24    0.0032284266656777
  25    0.0072972284322615
  26    0.0012193616980075
  27    -0.0036603175686582
  28     0.008521703350218
  29    0.00027883912964722
  30    0.0029539395166213
  31    0.0024146728446305
  32    -0.0035363108488574
  33    0.00029930126351983
  34    -0.0051740030020458
  35    0.00042312295159322
  36    0.00072093911560521
  37    -0.002871951647707
  38    -0.00010926439892569
  39    0.0004048698598809
  40    3.4974231311561e-06
  41    -0.00011705352180693
  42    0.00030088360911995
  43    -0.019527505905506
  44     -0.01679544553008
  45    2.6436972198678e-05
  46    0.00040968717523426
  47    0.00053915771926654
  48    0.0073384369580848
  49    0.0069040672827407
  50    -0.0011353703338757
  51    -0.00088025483372795
  52    -0.00018144450041041
  53    0.0086140617132251
  54     0.020202125934189
  55    0.0013889747414853
  56    -0.0063927161650804
  57    -0.0082978001806253
  58    0.0040717253574107
  59     -0.15063510521962
  60     -0.11676867208168
  61     -0.15522246167184
  62      0.36685843641773
  63      0.30907821395438
  64     -0.10297560926627
  65      0.24055177411255
  66      0.20286492849838
  67    -0.0014848039179956
  68    0.0070515420037147
  69    -0.016475568807736
  70    0.0078609224116641
  71    0.0082824342914514
  72     0.010400244352906
  73     0.021604205948858
  74    0.0013022065707205
  75    -0.0091798165340382
  76    -0.0048234063226172
 Sym= A
 Ene=               8
 Spin= Alpha
 Occup=    1.00000
   1    -0.00098543826687278
   2    -0.0030192178099106
   3    0.00086169560663214
   4    0.0074142659837919
   5    0.0078613113522716
   6    -0.0056147561262705
   7     0.020968708179033
   8     0.011458981047661
   9    -0.028531938675889
  10    -0.015234308674622
  11     0.017345698167689
  12    0.0013167830659906
  13      -0.0254658877327
  14     0.010994650987899
  15    -0.00096484429189312
  16     -0.01725720291306
  17    -0.053660155796043
  18     0.028540759066856
  19    -0.006596223098422
  20    0.0031168869552617
  21     0.015974172354465
  22    0.0060070187270161
  23     0.030252210468159
  24    -0.00047114277563549
  25    -0.00012128558719897
  26    0.0016833781794967
  27    -0.0014186953072119
  28    0.00045662846141934
  29    0.00099012568875239
  30    -0.00017227837334275
  31    -0.013036089694858
  32    -0.00024851919142049
  33    -0.0022715708452631
  34    0.0017755936158921
  35    -0.0016505630978837
  36    -0.0013921853363828
  37    0.0030946952744184
  38    -0.00021329782999853
  39    -0.00038753631306641
  40    0.0001577554961859
  41    -0.00013506846867727
  42    -0.00030068957372186
  43     0.012951621315566
  44     0.023853796269304
  45      0.00159935539528
  46    0.0012471253804238
  47    -0.00011194447144945
  48    -0.0045323719294701
  49     0.020893192297372
  50    -0.00024308334143509
  51    -0.00058881250700421
  52    -0.00030764850579543
  53    -0.013823778349864
  54    -0.021162404526782
  55    -0.0012341448400701
  56    -0.00051352433512779
  57    0.00042268739003945
  58    -0.0010812014469183
  59    -0.0022517836078167
  60    0.0075890834776755
  61      0.44123272185173
  62      0.41641287605098
  63      -0.2739240381231
  64      0.31225045609983
  65      0.29190297793742
  66     -0.19464441369746
  67    0.0056633999540449
  68    -0.0073357698715817
  69    -0.001406407853274
  70    0.0084737553801045
  71    -0.0035524957295682
  72     0.042819904183801
  73     0.049836297123194
  74    -0.0012121501421123
  75    0.00037389797915333
  76    0.0020201762385489
 Sym= A
 Ene=               9
 Spin= Alpha
 Occup=    1.00000
   1    -0.0010103825154127
   2     0.010458958714794
   3    -0.0055481143375538
   4     0.025026189029415
   5    -0.0029242197471618
   6    -0.0021715930962986
   7     0.011282635173527
   8    0.0015364242965664
   9     0.000783333499229
  10    0.0033491846134814
  11    -0.011223121330046
  12    0.0011624251644452
  13    -0.0035473201595733
  14    -0.00014488560363173
  15    -0.0025550381261544
  16     -0.15348180970483
  17    0.0061264580392951
  18    -0.094660129283069
  19     0.001351501121203
  20     -0.28932727555303
  21    -0.026917532373988
  22    -0.0002136772792401
  23    -0.051603659517046
  24    -0.049946623320133
  25     -0.02864194903076
  26    0.00053964034202797
  27    -0.0058393767759796
  28    0.00080052153417534
  29     0.004046435714906
  30     -0.15077422355303
  31     -0.11684022223882
  32      0.15581315460677
  33    0.0010042422796023
  34      0.47968005896773
  35      0.10323741491363
  36    0.00079832200312565
  37       0.3147312720337
  38    -0.018185139190302
  39    -0.010902924047642
  40    -0.00025898764548199
  41    -0.0018187494416774
  42    -8.0704867153183e-05
  43     0.010873331281058
  44     0.020784095928421
  45    -0.0014414628879275
  46    -0.0020271949871332
  47    -0.010165235432401
  48      0.01270764495873
  49     0.021978695144699
  50    -0.0013532389071037
  51    0.0019669729454256
  52    -0.010060925750306
  53    -0.017634390259934
  54    -0.016072611461035
  55    3.0230548248184e-05
  56    0.00013319775047949
  57    0.00078407616014078
  58    0.00027876115080003
  59    0.0029471857006239
  60    0.0024192164130789
  61    0.0035728434240966
  62    -0.0042504532408269
  63    -0.0029536489612861
  64    -0.00034431229010988
  65    -0.0028073165986826
  66    -0.0010863638315666
  67    7.6588625157513e-05
  68    -0.00049143703590801
  69    -0.00014210026486247
  70    -1.7939920601038e-05
  71    -0.00010484841139276
  72    0.0062755109996143
  73    0.0065624366841989
  74    0.0010696916628002
  75    0.00038184770334396
  76    -0.00080971717091304
 Sym= A
 Ene=              10
 Spin= Alpha
 Occup=    1.00000
   1    -0.0069897465425328
   2    -0.036966461837755
   3    -0.029161375429014
   4     0.017341640075905
   5    -0.039385090277387
   6    -0.032727892177382
   7    -0.00077236061170652
   8    -0.0034951182614789
   9    -0.0034164710942804
  10    0.00030591084270337
  11    -0.0011576303437473
  12    0.0018413299795441
  13    -0.00094086016925648
  14    -0.0011089159819004
  15    -0.001298950134479
  16    -0.0021049901713564
  17     0.010710716473693
  18    -0.0030436039629049
  19    -0.0014586974333081
  20    -0.0023144425191189
  21     -0.01281267303522
  22    0.00043529758080964
  23     0.002731328552967
  24    0.00061975167297549
  25    0.0024046716125586
  26    -0.00046360556481349
  27    5.3154623004016e-05
  28    0.0024770676480055
  29    0.00015650446361433
  30    0.00045492395175815
  31    -0.0013967400204064
  32    0.00059547945003025
  33    -0.0011014363242579
  34    -0.0021266462605394
  35    0.0011905087686928
  36    0.00032780734576071
  37    -0.00047785531530815
  38    -0.00010906014390322
  39    -4.4809126677315e-05
  40    9.4914748592296e-07
  41    -3.0322999464014e-05
  42    -3.582695935676e-05
  43    -0.0036039644834766
  44    -0.0013635632551119
  45    -0.00054236702087362
  46    0.00074313989152637
  47    0.00017293647029131
  48    -4.0046909304687e-05
  49     0.005002005395124
  50    0.00025625609802641
  51    -0.00029290318663984
  52    -0.00014387371840348
  53    0.00011778483506986
  54      0.01241300284467
  55    0.0012949948423503
  56    -0.0021938144320284
  57    -0.00077665798327705
  58    0.0063852329121055
  59       0.4697995817338
  60      0.55221571078417
  61    -0.076273133068187
  62      0.17622459272368
  63      0.14505892817559
  64    -0.053880071097914
  65      0.12403530695386
  66      0.10128732826859
  67    -0.0004078427098558
  68    0.0015301098917528
  69    -0.0038497317105817
  70    0.0018825441434856
  71    0.0019072474260403
  72    0.00089220040303657
  73     0.012877570398927
  74    0.0012282039313541
  75    -0.0010694437628279
  76    -0.0019913418380893
 Sym= A
 Ene=              11
 Spin= Alpha
 Occup=    1.00000
   1    -0.0013024552486313
   2    -0.0021074189282194
   3     0.010683833135294
   4    0.0029958057218953
   5    -0.0006732613031171