[Molden Format]
made by pyscf v[2.0.1]
[Atoms] (AU)
C   1   6     0.00000000000000     0.00000000000000     0.00000000000000
C   2   6     2.85207482267819     0.00000000000000     0.00000000000000
F   3   9     3.65415199667903     0.00000000000000     2.45977207315200
H   4   1     3.58561868306314    -1.67891019462705    -0.93677358840720
H   5   1     3.58561868306314     1.67891019462705    -0.93677358840720
H   6   1    -0.73354386038494    -1.92236567342330    -0.02818537215858
F   7   9    -0.80207717400084     1.22988603657600    -2.13022510286915
H   8   1    -0.73354386038494     0.98559208501610     1.65072482246847
[GTO]
1 0
 s    8 1.00
                  6665  0.00069158396281299
                  1000  0.0053257961529341
                   228   0.027060721042034
                 64.71    0.10165684614077
                 21.06     0.2745748236174
                 7.495    0.44829431892377
                 2.797    0.28490261071525
                0.5215   0.015194859206082
 s    8 1.00
                  6665  -0.00029326965268655
                  1000  -0.0023180354739745
                   228  -0.011499786038565
                 64.71  -0.046826727009787
                 21.06   -0.12846616875047
                 7.495   -0.30126627246289
                 2.797   -0.25563070233011
                0.5215      1.093793361012
 s    1 1.00
                0.1596                   1
 p    3 1.00
                 9.439   0.056979251590039
                 2.002    0.31320721150073
                0.5456    0.76037674173753
 p    1 1.00
                0.1517                   1
 d    1 1.00
                  0.55                   1

2 0
 s    8 1.00
                  6665  0.00069158396281299
                  1000  0.0053257961529341
                   228   0.027060721042034
                 64.71    0.10165684614077
                 21.06     0.2745748236174
                 7.495    0.44829431892377
                 2.797    0.28490261071525
                0.5215   0.015194859206082
 s    8 1.00
                  6665  -0.00029326965268655
                  1000  -0.0023180354739745
                   228  -0.011499786038565
                 64.71  -0.046826727009787
                 21.06   -0.12846616875047
                 7.495   -0.30126627246289
                 2.797   -0.25563070233011
                0.5215      1.093793361012
 s    1 1.00
                0.1596                   1
 p    3 1.00
                 9.439   0.056979251590039
                 2.002    0.31320721150073
                0.5456    0.76037674173753
 p    1 1.00
                0.1517                   1
 d    1 1.00
                  0.55                   1

3 0
 s    8 1.00
                 14710  0.00072067370873197
                  2207  0.0055504869689163
                 502.8   0.028254207662589
                 142.6    0.10639582836653
                 46.47    0.28668420124307
                  16.7    0.44843796582416
                 6.356    0.26464118141135
                 1.316   0.015326060993048
 s    8 1.00
                 14710  -0.00032119389049893
                  2207  -0.0025461915683188
                 502.8  -0.012643359507821
                 142.6   -0.05195749170489
                 46.47   -0.14344713812646
                  16.7   -0.33243762329603
                 6.356   -0.21865906750347
                 1.316     1.0955904138622
 s    1 1.00
                0.3897                   1
 p    3 1.00
                 22.67   0.064834021493887
                 4.977    0.34053535983101
                 1.347    0.73464640679382
 p    1 1.00
                0.3471                   1
 d    1 1.00
                  1.64                   1

4 0
 s    3 1.00
                 13.01   0.033498726389998
                 1.962    0.23480080117413
                0.4446     0.8136829578829
 s    1 1.00
                 0.122                   1
 p    1 1.00
                 0.727                   1

5 0
 s    3 1.00
                 13.01   0.033498726389998
                 1.962    0.23480080117413
                0.4446     0.8136829578829
 s    1 1.00
                 0.122                   1
 p    1 1.00
                 0.727                   1

6 0
 s    3 1.00
                 13.01   0.033498726389998
                 1.962    0.23480080117413
                0.4446     0.8136829578829
 s    1 1.00
                 0.122                   1
 p    1 1.00
                 0.727                   1

7 0
 s    8 1.00
                 14710  0.00072067370873197
                  2207  0.0055504869689163
                 502.8   0.028254207662589
                 142.6    0.10639582836653
                 46.47    0.28668420124307
                  16.7    0.44843796582416
                 6.356    0.26464118141135
                 1.316   0.015326060993048
 s    8 1.00
                 14710  -0.00032119389049893
                  2207  -0.0025461915683188
                 502.8  -0.012643359507821
                 142.6   -0.05195749170489
                 46.47   -0.14344713812646
                  16.7   -0.33243762329603
                 6.356   -0.21865906750347
                 1.316     1.0955904138622
 s    1 1.00
                0.3897                   1
 p    3 1.00
                 22.67   0.064834021493887
                 4.977    0.34053535983101
                 1.347    0.73464640679382
 p    1 1.00
                0.3471                   1
 d    1 1.00
                  1.64                   1

8 0
 s    3 1.00
                 13.01   0.033498726389998
                 1.962    0.23480080117413
                0.4446     0.8136829578829
 s    1 1.00
                 0.122                   1
 p    1 1.00
                 0.727                   1

[5d]
[7f]
[9g]

[MO]
 Sym= A
 Ene=               0
 Spin= Alpha
 Occup=    1.00000
   1        1.002222965167
   2    -0.00082381959535195
   3    -0.011596048387914
   4    0.00053594202963577
   5    0.0010998024703821
   6    -0.002127405426085
   7    -0.00082739723599538
   8    0.00063321779083277
   9    -0.0011032836216277
  10    7.8235743955222e-05
  11    1.9232338629307e-05
  12    -4.2540743961995e-05
  13    -0.00013089629819932
  14    1.9523028688558e-05
  15    -0.00010921261263767
  16    -0.00066798405576461
  17    0.0023012216804609
  18    0.0011304584573947
  19    -9.9371792079987e-06
  20    -0.00013001552824952
  21    -0.00092127356000327
  22    -0.00019675599888371
  23    6.3352194204312e-05
  24    0.00020587943752963
  25    -2.1577071876791e-05
  26    -1.7315604874886e-05
  27    -0.00029899535627945
  28    2.2687839551536e-05
  29    -2.5101967353771e-05
  30    5.3000445012229e-05
  31    0.00014881137910551
  32    -0.00027671126996422
  33    1.4769337120195e-05
  34    -6.2928759353657e-05
  35    -0.00040811546328935
  36    -4.3547589147585e-06
  37    -3.9914490037127e-05
  38    1.3664822401933e-07
  39    -5.189365764967e-06
  40    -3.7614659390802e-08
  41    2.0886342699778e-05
  42    1.7015778334627e-06
  43    7.1551810353095e-05
  44    0.00016692259400016
  45    -3.0513190046193e-05
  46    3.3828206085359e-05
  47    4.097115421259e-06
  48    -3.8271648319202e-05
  49    0.00035454579286392
  50    -7.837300792582e-05
  51    -1.376397537429e-05
  52    7.7584011878394e-06
  53    -0.0030644229039159
  54    0.00079944119592637
  55    -0.00011531141890993
  56    -0.00063742281830805
  57    3.4442866815953e-05
  58    0.00015205439056203
  59    4.1375242115495e-05
  60    -0.00029580168480784
  61    -0.00036787604130037
  62    0.00046897522224242
  63    -0.00079451549093059
  64    -0.00047963567513993
  65    0.00072743523252752
  66    -0.0012608274486215
  67    -0.00018786983073929
  68    -0.00014128758259523
  69    0.00024415858001583
  70    4.5204017231441e-05
  71    8.0452385993539e-05
  72    -0.0030130731453741
  73    0.00085838641878572
  74    -8.0727153307145e-05
  75    0.00026250455422489
  76    0.00052879181217148
 Sym= A
 Ene=               1
 Spin= Alpha
 Occup=    1.00000
   1    -0.00010845645215026
   2    -0.00066874866318068
   3    0.0023033617730578
   4    -0.0011252914533485
   5    -6.9308103480602e-05
   6    0.00010855703279581
   7    0.00092426668843859
   8    -0.00013709068348508
   9    -0.0001542831257212
  10    0.00020757870255928
  11    -2.8749850720755e-05
  12    -1.6564971992403e-05
  13    -0.00029974797468752
  14    -9.1164656887739e-06
  15       1.0022230800432
  16    -0.00087600665101334
  17    -0.011626142033585
  18    -0.00056596567323238
  19    -0.00011226903549341
  20    0.0024263998653195
  21    0.00081563502570222
  22    -3.7268930008399e-06
  23    0.0012863807473107
  24    0.0001106368324156
  25    8.1650821304906e-06
  26    1.9311852330623e-05
  27    -0.00011070538150531
  28    -2.6701895883179e-05
  29    0.00015249368227364
  30    4.4240816142866e-05
  31    -0.0002917894165774
  32    0.00036894410381169
  33    8.9211625580906e-06
  34    0.00091983009111396
  35    0.00048227370755528
  36    -3.5857530905737e-07
  37    0.0014520241474705
  38    -0.00031112578049476
  39    -0.00016242018165974
  40    -7.3320105873497e-07
  41    -2.5322141896463e-05
  42    9.7403471111837e-07
  43    -0.0031118679801282
  44    0.00078898231203243
  45    0.00011646367042849
  46    -0.00053944231403396
  47    -0.00035003440135878
  48    -0.0030620184754445
  49    0.00084704333790943
  50    8.1861522848445e-05
  51    0.00049644168404451
  52    -0.0003283069872867
  53    6.552109371521e-05
  54    0.00016380829671304
  55    3.0501918090015e-05
  56    3.0858328179104e-05
  57    1.3366318328211e-05
  58    -2.5045574083227e-05
  59    5.4215235807626e-05
  60    0.00015037232163573
  61    0.00027819168055784
  62    -1.9432534033517e-05
  63    6.2714793494104e-05
  64    0.00040929735113984
  65    -2.4344295714216e-05
  66    3.2585202102637e-05
  67    -4.3945994006992e-06
  68    -5.2416843278135e-06
  69    -9.0500435727511e-06
  70    1.8282664964478e-05
  71    1.0706848399096e-06
  72    -3.9725151722378e-05
  73    0.00035145088479802
  74    7.8597172218299e-05
  75    -7.8150310772064e-06
  76    -1.3530075115658e-05
 Sym= A
 Ene=               2
 Spin= Alpha
 Occup=    1.00000
   1    3.8821470561537e-05
   2    4.6870776910018e-05
   3    -0.0011172040451048
   4    -0.00011312877291405
   5    2.7435245432983e-05
   6    3.9195911441497e-05
   7    -0.00066243207993905
   8    -0.00014192612810212
   9    -0.0002412771403171
  10    9.8581356329594e-05
  11    -2.3023243765653e-05
  12    2.6530737574297e-05
  13    -2.3769769991262e-05
  14    -1.6427033147915e-05
  15    -5.5517894068462e-05
  16    3.4995918214006e-05
  17    0.0033044668611425
  18    0.00022443791711656
  19    -1.6629610006757e-06
  20    0.00050960794777756
  21    -0.00016452574263644
  22    4.9801614423191e-05
  23    0.0012942905905594
  24    -9.3968755902122e-06
  25    -4.5742177125708e-06
  26    5.2047277682858e-06
  27    3.6714768176158e-06
  28    -1.2425902769201e-05
  29       1.0009712589673
  30    -0.0038253633688841
  31      -0.0105108531432
  32    -0.00098978722251278
  33    7.0679031795268e-05
  34    -0.0026395346765986
  35    -2.1100191768911e-05
  36    5.1681298376149e-05
  37    0.0001303714563197
  38    -0.00015713334826305
  39    -8.7183133235328e-05
  40    -3.1236079429777e-06
  41    -7.7004493623967e-06
  42    -1.8054373881611e-06
  43    -0.00026708992056786
  44    -0.00014750678220481
  45    4.9861806816581e-06
  46    -2.1905958217717e-05
  47    -0.00016305961149114
  48    -0.00026869561990072
  49    -0.00021849895502676
  50    6.2578159746484e-06
  51    1.9391979655646e-05
  52    -0.00016534177955549
  53    7.8203162695891e-05
  54    -0.00015909126392571
  55    -8.6472742100878e-06
  56    1.0831145524011e-05
  57    1.2574040063227e-05
  58    -2.418746534086e-05
  59    -4.0201970780454e-05
  60    0.00013403524758462
  61    -1.5575101648533e-05
  62    -9.7031246549224e-06
  63    5.2075898036482e-06
  64    0.00014469565038649
  65    1.8288799351965e-05
  66    3.5308228978807e-05
  67    8.4033664024938e-06
  68    5.7297178089167e-07
  69    7.228074314964e-06
  70    5.6857955064609e-06
  71    1.7735116793563e-06
  72    3.6250583521029e-05
  73    -6.1322273795855e-06
  74    -4.3376236758825e-05
  75    2.170791047075e-05
  76    -2.7847036953002e-06
 Sym= A
 Ene=               3
 Spin= Alpha
 Occup=    1.00000
   1    -5.5486535247528e-05
   2    3.3479754775961e-05
   3    0.0033035923951005
   4    -0.00022309930731991
   5    0.00025444391901697
   6    -0.00044352041683013
   7    0.00016519353935779
   8    0.00069061085338167
   9    -0.0010964887308433
  10    -1.0456671799332e-05
  11    2.2820786251113e-06
  12    2.7293698583284e-06
  13    3.0287649155815e-06
  14    1.2986435797161e-05
  15    3.8850343962736e-05
  16    4.5977794285878e-05
  17    -0.0011177841490697
  18    0.0001122584799338
  19    4.2450252925966e-05
  20    -1.9514549907462e-05
  21    0.00066211708432305
  22    -0.00024386723293308
  23    0.00013826224956546
  24    4.6929526539445e-05
  25    -1.1646761164727e-05
  26    -7.6868110550866e-05
  27    -5.359980518951e-05
  28    2.5663682682636e-05
  29    -2.4181024709686e-05
  30    -4.0090023545574e-05
  31    0.00013421406139918
  32    1.5532277039266e-05
  33    -5.7396012118038e-06
  34    -9.5499893356515e-06
  35    -0.00014468697412699
  36    3.3583007152208e-05
  37    -2.1596888332612e-05
  38    -1.4133890960392e-06
  39    -3.8100590575388e-07
  40    -1.2364865185214e-05
  41    2.8871866863418e-08
  42    -1.8196815805229e-06
  43    7.7873636682713e-05
  44    -0.00015905628167905
  45    8.6364540319302e-06
  46    1.5592622146906e-05
  47    -5.4755686798876e-06
  48    3.4488904995772e-05
  49    -6.8130543818082e-06
  50    4.3408041509106e-05
  51    1.7532121439127e-05
  52    1.3207056937986e-05
  53    -0.00026915379847465
  54    -0.00014816497263886
  55    -5.038376083053e-06
  56    -0.00010067645954305
  57    0.00013021093647084
  58       1.0009712552641
  59    -0.0038261156829508
  60    -0.010511748365523
  61    0.00099166339656648
  62    -0.0012591595501015
  63    0.0023217322552524
  64    2.2335303457686e-05
  65    0.00010949236537201
  66    -8.6697425330289e-05
  67    -9.4212937771305e-05
  68    -7.4553516663283e-05
  69    0.00012274962334048
  70    2.8654535216891e-05
  71    4.5124963222801e-05
  72    -0.00027025895900882
  73    -0.00021881794843112
  74    -6.286816687727e-06
  75    -6.5743258295847e-05
  76    0.00015299836615697
 Sym= A
 Ene=               4
 Spin= Alpha
 Occup=    1.00000
   1    0.0010746268821424
   2      0.01691242334335
   3     0.043912307280208
   4      0.02130793204811
   5    -0.00021268005008024
   6    0.00012951356522069
   7     0.021406140386374
   8    -0.0068902334338868
   9    -0.025424308943222
  10    -0.0017024158124551
  11    0.00052145182594675
  12    0.0010901105815363
  13    0.00028338706021744
  14    -0.0008671463445379
  15    0.0016467756462722
  16    0.0026695766119545
  17    -0.012906881125129
  18    0.0062480830553618
  19    0.0066778048876148
  20    -0.00045736033713234
  21     0.023856817981072
  22     0.028496750536773
  23    0.0091943125673281
  24    -0.0096399806912151
  25     0.015733424239334
  26       0.0287772267306
  27    0.0073948402012065
  28    0.0066951150441631
  29    0.0010729047029696
  30    0.0040947767785571
  31    -0.0043396499787846
  32        0.363607912596
  33      0.54465496545167
  34     -0.11935749201623
  35      0.25769481637283
  36      0.38543463878168
  37    -0.082706516943242
  38    0.0040201865398229
  39    -0.0059378794155723
  40    -0.0097715342141314
  41    -0.0022447850044042
  42    -0.0039045555812126
  43     0.022830255581978
  44     0.028919279488794
  45    -0.0011713354218068
  46    -0.00086416359900316
  47    0.00046031819814188
  48    -0.047618460468767
  49    -0.054722172073843
  50    -0.00077851471492371
  51    -0.00089650473637174
  52    -0.0019822412708041
  53    0.0009951448797638
  54    -0.016297809425358
  55    0.0013226613904901
  56    -0.00043616761690129
  57    0.0011049102880605
  58    0.0014371825713963
  59    0.00097311074020192
  60     -0.01440299553783
  61    -0.0023011001297841
  62    0.0034982457310203
  63    -0.0041932149795544
  64    -0.005123930270056
  65    0.0065234437052378
  66    -0.005376717258761
  67    -3.0807592792942e-05
  68    0.00023685553074298
  69    0.00013299687218218
  70    7.8254567931177e-05
  71    -0.00025442515839711
  72    0.0082997299715517
  73    0.0088539260984994
  74    -0.00010043629380997
  75    1.1921919291814e-05
  76    -0.0012803071160331
 Sym= A
 Ene=               5
 Spin= Alpha
 Occup=    1.00000
   1    0.00051850732153443
   2     0.024040429313768
   3     0.073032667933131
   4     0.029291913279523
   5    0.0075007883387379
   6    0.0056317915279994
   7     0.014789337017228
   8      0.02441286450762
   9    -0.0036189924248349
  10    -0.0012592429265949
  11    0.00039930054347875
  12    0.00035986196574447
  13    -0.00014241329491579
  14    0.00083402117642151
  15    0.0015683835337339
  16    0.0034100614967119
  17    -3.5259971742378e-05
  18    0.0080706133225003
  19    -0.0046794318422479
  20    -0.0011845705869179
  21     0.028658091397859
  22    -0.024397377483104
  23    0.0092526993659236
  24    -0.014263709024564
  25     0.022912437026879
  26    -0.019637041298304
  27     0.010765908118971
  28    -0.0045677612476403
  29    0.0013633123735999
  30    -0.0095849313184287
  31    -0.023339343940688
  32      0.51645838314479
  33     -0.38387123809275
  34     -0.17009058448838
  35      0.36619361012666
  36     -0.27038442756784
  37     -0.11738217176086
  38    0.0054936784430017
  39    -0.0084018602974775
  40    0.0069083810806918
  41     -0.00332961998774
  42    0.0025540516709001
  43    -0.042138909710834
  44    -0.047778773273928
  45    -0.0013082660398353
  46    0.0009170051231839
  47    -0.001741229789111
  48    0.0066460407023736
  49    0.0076956429656869
  50    -0.0012354857164148
  51    0.00062124537484577
  52    -4.007658104237e-05
  53    -0.0024191730493158
  54    0.0005899788814541
  55     0.001502235965997
  56    -0.0004450053870615
  57    0.0013038164656897
  58    0.0007775784931879
  59    -0.0020528165470742
  60     -0.01715885443843
  61    -0.0065015010287205
  62    0.0016665559582046
  63    -0.0071515928907405
  64    -0.0043800713428006
  65    0.0030515758510872
  66    -0.010107333282077
  67    -0.00013182124546095
  68    0.00052711628901192
  69    0.00017990640486573
  70    0.00041641390504018
  71    -0.00020393268496681
  72    0.0084046026031853
  73    -0.034651032781926
  74    -0.0040788958456288
  75    -0.00030642818299797
  76    -0.0011931831774918
 Sym= A
 Ene=               6
 Spin= Alpha
 Occup=    1.00000
   1    -0.0015968220074732
   2    -0.0045721301362327
   3    -0.00046996042816015
   4    0.0088980264599119
   5    0.0066110305719064
   6    0.0011842166886965
   7     0.029323011248171
   8     0.016774407792044
   9     0.020087051525422
  10    -0.0029232111620897
  11    -0.022276260738989
  12    -0.015731128895177
  13    -0.020853144397019
  14     0.007622346107555
  15    -0.00051739170861115
  16    -0.023832506721073
  17    -0.073355760567103
  18     0.029692595762415
  19    -0.0094531096766572
  20    0.00088406414914204
  21     0.015165339451034
  22    -0.019050888924213
  23    -0.015730823690802
  24     0.001065184926215
  25    3.7349109050046e-05
  26    -0.00081451412278452
  27    -2.7856693051544e-05
  28    0.00080930988678418
  29    -0.0008054627390786
  30    0.0019995390256816
  31     0.017329030989908
  32    -0.0065333463599558
  33     0.002115659266878
  34    -0.0070525858608914
  35    -0.0044732434287765
  36    0.0023584359544001
  37     -0.01034367289322
  38    0.00031312323394384
  39    -0.0005624075041621
  40    0.00017604795021423
  41    -0.00031505602901297
  42    8.392691656717e-05
  43    0.0029608826998211
  44    -6.127926054626e-05
  45    0.0015017461009093
  46    -0.00024140540473361
  47    0.0013835540983436
  48    -0.0084266305770312
  49     0.034263974337402
  50    -0.0040830631197763
  51    0.00083986762811435
  52    -0.00089007812573918
  53     0.039270892063959
  54     0.046490572929881
  55    -0.001407738296809
  56    -8.9470859379502e-05
  57    -0.0019656602486327
  58    -0.0013725465914128
  59    0.0098678997077423
  60      0.02377284498261
  61      0.52228649602359
  62      0.41049203179147
  63      0.03891687546529
  64       0.3702638916965
  65      0.28778528213708
  66     0.029477531783936
  67    0.00087552573987788
  68    0.0086174857975318
  69    0.0060993058525725
  70    0.0070877849123137
  71     -0.00209311911148
  72    -0.0057874938675034
  73    -0.0065830888716941
  74    -0.0012242592591405
  75    -0.00042420657359404
  76     -0.00034918051482
 Sym= A
 Ene=               7
 Spin= Alpha
 Occup=    1.00000
   1    0.0016180255696066
   2    0.0033560813976244
   3    -0.012365357693727
   4    -0.0066767013675991
   5      0.00765630251676
   6    0.0057665647976933
   7    -0.023616977761413
   8      0.03028014859554
   9    0.0073633044468421
  10     -0.02918471777347
  11    0.0098424572436153
  12    -0.010491966232091
  13    -0.0042139822093535
  14    -0.013611994279177
  15    0.0010560308723902
  16     0.016626405043427
  17     0.042728984962914
  18     -0.02056921065529
  19    -0.000264715400463
  20    -0.00024178120017057
  21    -0.020987566721442
  22    -0.018913827887653
  23     0.018239744653241
  24    -0.0019423018706039
  25    0.00079201946519018
  26    0.0006169333466781
  27    0.00015288380800938
  28    0.00039322600340928
  29    0.0014172722605319
  30    0.00092896486671376
  31    -0.014234791104673
  32    0.0022809942684512
  33    0.00094780300045359
  34     0.005344727194616
  35    0.0051077830160164
  36    0.0029691802049469
  37    0.0077998327994774
  38    -0.00012937694872321
  39    0.00031933350105537
  40    -7.2916491713057e-05
  41    1.5140946169161e-05
  42    0.00010011851959043
  43    0.0013680528263115
  44    -0.015971634530064
  45    -0.0013014411932829
  46    0.00017420787233705
  47    -0.0011475984651356
  48    0.0082391912859485
  49     0.009278639269733
  50    4.6124648243817e-05
  51    -0.00063715923166263
  52    0.0011064137752483
  53      0.02230941518607
  54      0.02908900124859
  55    0.0010862988919303
  56    -0.00054215567790847
  57    -0.00081246096880459
  58    0.0010468501452587
  59    0.0040098111962777
  60    -0.0042229146662398
  61     -0.35529948975241
  62      0.41861292701819
  63      0.37603793176821
  64     -0.25176012697763
  65      0.29693729420392
  66      0.26451490866563
  67      0.01037549432423
  68    -0.0030562862731215
  69    0.0029588852174381
  70    0.0015224209493572
  71    0.0063298426673066
  72    -0.044889328348069
  73    -0.053882094942563
  74    0.00085311352280816
  75    -0.0018599665840968
  76     0.001100864927761
 Sym= A
 Ene=               8
 Spin= Alpha
 Occup=    1.00000
   1    0.0018846428685152
   2      0.15251634521599
   3    -0.011994308070661
   4    -0.095897092178888
   5      0.14179170130642
   6     -0.24803196071333
   7    -0.026866443490131
   8     0.019085462200716
   9    -0.040482466485799
  10     0.030926170061926
  11     0.024319432055593
  12    -0.039328083679935
  13    -0.0056455510448064
  14    -0.014863474221872
  15    -0.00044811236327418
  16    -0.018310609366553
  17     0.013387623885041
  18     0.021346335505406
  19    -0.0035534395695684
  20    -0.0082625873025087
  21    0.0057089415672617
  22    0.0099102765495499
  23    -0.0072619324921115
  24    -0.0011618956823078
  25    0.0092346587896028
  26    0.0027765677647523
  27    0.0031027329314909
  28    -0.005920755705257
  29    0.00043859990768967
  30     0.006381801601299
  31     0.010545787461859
  32    -0.012130861230978
  33    0.00026966162738503
  34    -0.0095656300597226
  35    -0.011969719691055
  36    -0.0016801302689914
  37    -0.0052809726551118
  38    0.00015126118640532
  39    -0.00026485695714164
  40    0.00024965795508869
  41    -0.00028038067826388
  42    6.5532927984009e-05
  43    0.0025086656021655
  44     0.012789291932759
  45    0.0011576296905253
  46    -0.00085943655104697
  47    -0.00035080513083288
  48    -0.010637873012529
  49    -0.024617179621576
  50    0.00090569866118014
  51    -0.00046326950690009
  52    -0.0011100576436323
  53    -0.010324866911913
  54    -0.023030255977034
  55    -0.001445230840731
  56    0.0072159286462194
  57    -0.0077292594336949
  58    -0.0043651209856532
  59      0.15171079750542
  60      0.12260484837421
  61       0.1554284957886
  62     -0.24235640484593
  63      0.41518472297755
  64      0.10302658175537
  65     -0.15965692186946
  66      0.27349793148104
  67     0.010717582445615
  68    0.0094768861699865
  69    -0.014363191736395
  70    -0.0023188515926534
  71    -0.0056148063863704
  72     -0.00937604335431
  73     -0.01554639054239
  74    -0.0011062706915349
  75     0.003374072479691
  76    -0.0097390078877249
 Sym= A
 Ene=               9
 Spin= Alpha
 Occup=    1.00000
   1    0.00041464580196289
   2     0.017543161773407
   3    -0.013948989879755
   4     0.021495020704459
   5    0.0063817434801274
   6    -0.0064224556939281
   7     0.005736989703554
   8    -0.0052430191498212
   9    -0.011599845762276
  10    0.0034023277109621
  11    -0.010983743407529
  12    0.0018144698922244
  13    -0.0017168990476994
  14    -0.00048788251418601
  15    -0.0018847659532386
  16     -0.15013955086751
  17     0.013417606649042
  18    -0.094480053299938
  19    0.0010585343639038
  20     -0.28741770903059
  21    -0.026319706594976
  22    0.0036225107592224
  23    -0.045259912977452
  24    -0.050126242795424
  25    -0.028494114734692
  26     0.001083678606155
  27    -0.0055218154560827
  28    -0.00067539341456286
  29    0.0043485532468635
  30     -0.15185995603874
  31      -0.1227911914078
  32      0.15589114460835
  33    0.0022783666600087
  34      0.48079879164868
  35      0.10325324358649
  36    0.0015237608193939
  37      0.31680815498496
  38    -0.017934566243144
  39    -0.011033444920864
  40    -0.00014533349041121
  41    -0.0018840298341674
  42    -0.0001223571435017
  43     0.012622810528557
  44     0.023456826016418
  45    -0.0015059670801212
  46    -0.0021584132482184
  47    -0.010231066410714
  48     0.011527124797131
  49     0.016053248695422
  50    -0.0011591967839179
  51    0.0017363304030912
  52    -0.010056038260185
  53    -0.0022093359837416
  54    -0.012531297835568
  55    0.0011698874846346
  56    0.00090920809329923
  57    0.00010060863123228
  58    -0.00043411325298879
  59    -0.0063742591641053
  60    -0.010549719521654
  61     -0.01220320173692
  62    0.0046005476424487
  63    -0.0083282368365637
  64    -0.012053609924369
  65    0.0041837078112325
  66    -0.0035996552583128
  67    1.3875981996451e-05
  68    0.00025840659243046
  69    0.00011221014878006
  70    0.00038334271205398
  71    -7.7964207645979e-05
  72    0.0092375449424405
  73     0.024331634572778
  74    0.00084452750562707
  75    0.0010066374747799
  76    -0.00063867951367363
 Sym= A
 Ene=              10
 Spin= Alpha
 Occup=    1.00000
   1    -0.0068270454030634
   2    -0.036343755889758
   3    -0.025948196170862
   4     0.017242947139262
   5    -0.025464243277145
   6     0.044431293553578
   7    -0.0013526437105108
   8    0.00085133415412057
   9    0.0017758320315243
  10    0.0011228359332005
  11    0.0018563893902894
  12    -0.0011371653533833
  13    0.00019153447827832
  14    -0.00056432912688092
  15    -0.00029931367583511
  16    0.00089805449807447
  17    0.0042740849966249
  18    -0.0029906185654505
  19    -0.0014521780298048
  20    0.0040863074701921
  21    -0.012000139678214
  22     -0.01000623952108
  23    0.0044189354795056
  24    -0.0004295408745361
  25    -0.0025973187601338
  26    0.00022146019950519
  27    -4.9132864005108e-07
  28    0.0013776364970207
  29    -0.00027153167172206
  30    -0.0019183057192069
  31    -0.0024647663062149
  32    0.0030894072776793
  33    0.00029325739519128
  34    0.0020416167367871
  35    0.0029902337576539
  36    0.0010759870353948
  37    0.00091508877057153
  38    -5.6922273214304e-06
  39    0.00014520029907984
  40    -9.8464768201648e-06
  41    0.00013643648517042
  42    2.8537475671161e-05
  43    -0.0017012101186925
  44    -0.0047115635925587
  45    0.00039756298085334
  46    1.3277842950771e-05
  47    2.1469618210711e-05
  48    0.0012885437205621
  49       0.0174985347463
  50    -0.00059132176942679
  51    -0.00048656007982295
  52    0.00023381207405344
  53    -0.00032636391698511
  54     0.012296014432652
  55    0.0012493208982806
  56    -0.00048286948296746
  57    0.0024212491725916
  58    0.0060078380459616
  59      0.46884555198676
  60       0.5498324563513
  61    -0.086530476330051
  62      0.10365603981659
  63     -0.20134092084801
  64    -0.060198185315125
  65     0.072829508903711
  66     -0.14243485743717
  67    -0.0025965778651974
  68    -0.0023980115073516
  69    0.0031961267103006
  70    0.00046044528547347
  71    0.0013007746004968
  72    0.00077842959073865
  73     0.011394122241117
  74    0.0012939259185636
  75    -0.0019189385929662
  76    0.0014758686435535
 Sym= A
 Ene=              11
 Spin= Alpha
 Occup=    1.00000
   1    -0.0003003763311971
   2    0.00071524944443764
   3    0.0041298693348937
   4    0.0030798440293262
   5    0.00064720425573699
   6    -0.0044911664613492