[Molden Format]
made by pyscf v[2.0.1]
[Atoms] (AU)
C   1   6     0.00000000000000     0.00000000000000     0.00000000000000
C   2   6     2.89040035821050     0.00000000000000     0.00000000000000
H   3   1     3.65380793584534     0.00000000000000     1.93990930394644
H   4   1     3.65380793584534    -1.68001073825540    -0.96995465197322
H   5   1     3.65380793584534     1.68001073825540    -0.96995465197322
H   6   1    -0.76340757763484    -0.33686171546942     1.91043772266697
H   7   1    -0.76340757763484     1.82291845791239    -0.66348805817456
H   8   1    -0.76340757763484    -1.48605674244297    -1.24694966449241
[GTO]
1 0
 s    8 1.00
                  6665  0.00069158396281299
                  1000  0.0053257961529341
                   228   0.027060721042034
                 64.71    0.10165684614077
                 21.06     0.2745748236174
                 7.495    0.44829431892377
                 2.797    0.28490261071525
                0.5215   0.015194859206082
 s    8 1.00
                  6665  -0.00029326965268655
                  1000  -0.0023180354739745
                   228  -0.011499786038565
                 64.71  -0.046826727009787
                 21.06   -0.12846616875047
                 7.495   -0.30126627246289
                 2.797   -0.25563070233011
                0.5215      1.093793361012
 s    1 1.00
                0.1596                   1
 p    3 1.00
                 9.439   0.056979251590039
                 2.002    0.31320721150073
                0.5456    0.76037674173753
 p    1 1.00
                0.1517                   1
 d    1 1.00
                  0.55                   1

2 0
 s    8 1.00
                  6665  0.00069158396281299
                  1000  0.0053257961529341
                   228   0.027060721042034
                 64.71    0.10165684614077
                 21.06     0.2745748236174
                 7.495    0.44829431892377
                 2.797    0.28490261071525
                0.5215   0.015194859206082
 s    8 1.00
                  6665  -0.00029326965268655
                  1000  -0.0023180354739745
                   228  -0.011499786038565
                 64.71  -0.046826727009787
                 21.06   -0.12846616875047
                 7.495   -0.30126627246289
                 2.797   -0.25563070233011
                0.5215      1.093793361012
 s    1 1.00
                0.1596                   1
 p    3 1.00
                 9.439   0.056979251590039
                 2.002    0.31320721150073
                0.5456    0.76037674173753
 p    1 1.00
                0.1517                   1
 d    1 1.00
                  0.55                   1

3 0
 s    3 1.00
                 13.01   0.033498726389998
                 1.962    0.23480080117413
                0.4446     0.8136829578829
 s    1 1.00
                 0.122                   1
 p    1 1.00
                 0.727                   1

4 0
 s    3 1.00
                 13.01   0.033498726389998
                 1.962    0.23480080117413
                0.4446     0.8136829578829
 s    1 1.00
                 0.122                   1
 p    1 1.00
                 0.727                   1

5 0
 s    3 1.00
                 13.01   0.033498726389998
                 1.962    0.23480080117413
                0.4446     0.8136829578829
 s    1 1.00
                 0.122                   1
 p    1 1.00
                 0.727                   1

6 0
 s    3 1.00
                 13.01   0.033498726389998
                 1.962    0.23480080117413
                0.4446     0.8136829578829
 s    1 1.00
                 0.122                   1
 p    1 1.00
                 0.727                   1

7 0
 s    3 1.00
                 13.01   0.033498726389998
                 1.962    0.23480080117413
                0.4446     0.8136829578829
 s    1 1.00
                 0.122                   1
 p    1 1.00
                 0.727                   1

8 0
 s    3 1.00
                 13.01   0.033498726389998
                 1.962    0.23480080117413
                0.4446     0.8136829578829
 s    1 1.00
                 0.122                   1
 p    1 1.00
                 0.727                   1

[5d]
[7f]
[9g]

[MO]
 Sym= A
 Ene=               0
 Spin= Alpha
 Occup=    1.00000
   1    -0.00013896867682119
   2    0.00014450900720778
   3    0.0024425550783025
   4    0.00031270112523091
   5    -4.5728517555186e-07
   6    9.6602481570845e-08
   7    0.0011542928510508
   8    -1.9392128028774e-07
   9    7.2966210622809e-08
  10    0.00010519203469927
  11    -2.9610000151457e-08
  12    1.6047312145086e-08
  13    -0.00018217014764669
  14    -1.5492544961147e-08
  15        1.002272715447
  16    0.0054846086331494
  17    -0.0088779945404796
  18    0.00019879366793604
  19    -7.1090519327861e-07
  20    -5.5261415508566e-07
  21    0.00078175877006531
  22    -3.2408748989729e-07
  23    -2.728994667816e-07
  24    8.8986951441278e-05
  25    -2.6260100330752e-08
  26    3.4830744985531e-08
  27    -0.00015418484142681
  28    -6.6704116205667e-09
  29    0.00047743436838811
  30    0.0012695473840783
  31    9.033946323106e-05
  32    6.3354698939237e-07
  33    0.0003670118933324
  34    0.00047867056303768
  35    0.0012700706240581
  36    9.0297691045858e-05
  37    -0.00031811291777036
  38    -0.00018291039113631
  39    0.00047765824654751
  40    0.0012696771269395
  41    9.0333459314951e-05
  42    0.00031749454129357
  43    -0.0001840915131626
  44    -0.00011137860443302
  45    8.1952309239282e-05
  46    4.2288223439474e-05
  47    9.4342962599379e-07
  48    -1.6507450960346e-05
  49    -0.00011192648740377
  50    8.1722236827064e-05
  51    4.2270697744587e-05
  52    -1.4746369952508e-05
  53    7.4135244172227e-06
  54    -0.00011137244469006
  55    8.1874279502017e-05
  56    4.2291867829615e-05
  57    1.3815016930032e-05
  58    9.0942348323068e-06
 Sym= A
 Ene=               1
 Spin= Alpha
 Occup=    1.00000
   1       1.0022726799485
   2    0.0054851129370336
   3    -0.0088776618283608
   4    -0.00019865770686195
   5    6.6828179353277e-07
   6    2.0719901247581e-07
   7    -0.00078170228176459
   8    3.0412103439132e-07
   9    7.6315939905502e-08
  10    8.8994144659698e-05
  11    1.5400649623689e-08
  12    -3.3189251310666e-08
  13    -0.00015415593563359
  14    -2.7238140584388e-09
  15    -0.00013895626932869
  16    0.00014476843708226
  17    0.0024427351764287
  18    -0.00031295644493719
  19    5.0132670073448e-07
  20    5.0575587639389e-07
  21    -0.0011544029915018
  22    2.1293952485986e-07
  23    2.3879971109095e-07
  24    0.00010518285050277
  25    1.0058889814216e-08
  26    -2.4800411535727e-08
  27    -0.00018213398173256
  28    -1.1491582985876e-08
  29    -0.00011108828064725
  30    8.2006343005415e-05
  31    -4.2306375404906e-05
  32    1.9396963410668e-06
  33    -1.6445586092292e-05
  34    -0.00011206073912784
  35    8.1639902532607e-05
  36    -4.2272177792837e-05
  37    1.3230733864023e-05
  38    9.8675452925724e-06
  39    -0.00011138855689199
  40    8.1862819617279e-05
  41    -4.2297628769409e-05
  42    -1.5182552593893e-05
  43    6.5673384743823e-06
  44    0.00047817203901101
  45    0.0012697781551253
  46    -9.0307668561625e-05
  47    -6.4345899746234e-05
  48    0.00036127093179032
  49    0.0004785868784834
  50    0.0012699618901537
  51    -9.0294751104154e-05
  52    0.00034503542353552
  53    -0.0001248717604214
  54    0.0004776145154471
  55     0.001269602491898
  56    -9.0329275851246e-05
  57    -0.00028070444676952
  58    -0.00023640494496535
 Sym= A
 Ene=               2
 Spin= Alpha
 Occup=    1.00000
   1    -0.013495919888997
   2      0.18285899012365
   3      0.11090121724407
   4     -0.12417486865773
   5     -0.26502504243769
   6     -0.22305022094319
   7    -0.060308635593273
   8     -0.12784727703347
   9     -0.10736457408591
  10    0.0013129968512393
  11     0.008849516129657
  12     0.017327005196092
  13    -0.0078999479651081
  14     0.010495410282867
  15    -0.0023906914606869
  16    -0.020565181495484
  17    -0.015460932194135
  18     0.025079879373724
  19    0.00024093448402387
  20    -0.00033529653789448
  21     0.015716278049809
  22     0.012094190253755
  23    0.0076758460076769
  24    -0.0014545522519246
  25     0.010562645663531
  26    0.00026919406101268
  27    0.0043768883156422
  28     0.012426566193818
  29     0.015754791044045
  30     0.027204392536894
  31    0.00096294141369562
  32    8.6624723785979e-05
  33    0.00068184712913062
  34    -0.023827897154165
  35    -0.027161994251989
  36      0.00122602416671
  37    0.00066058430749355
  38    0.00046374283543159
  39    0.0083252776942247
  40     0.014729062315761
  41    0.0014134343497643
  42    0.00033514997932057
  43    9.7108184837037e-05
  44    -0.020212897066258
  45    -0.037090616746434
  46     -0.00253670705715
  47    -0.0077510552948675
  48    -0.0091583627444042
  49    -0.020051729375494
  50     -0.03680466667519
  51    -0.0025479906776531
  52    -0.010465662109939
  53    -0.0060360915271587
  54      0.43096234174678
  55      0.16112280212959
  56     0.012698214003123
  57      0.02306310714547
  58     0.019256337803712
 Sym= A
 Ene=               3
 Spin= Alpha
 Occup=    1.00000
   1    -0.0023906047102117
   2    -0.020566627408178
   3    -0.015462077867432
   4    -0.025083565985699
   5    -0.00017872179918036
   6    -0.00037248236346244
   7    -0.015718012934943
   8    -0.013243258903816
   9    0.0054586538606818
  10    -0.0015826664837061
  11    -0.0082440552729661
  12    -0.00057060436817008
  13    0.0043025873201715
  14     0.014072060026239
  15     -0.01349589356644
  16      0.18285787761162
  17      0.11090027928756
  18      0.12417871776878
  19      0.29973328962676
  20     -0.17363510550204
  21     0.060310443530515
  22       0.1445497511513
  23    -0.083530411375136
  24    -0.0036719278797245
  25    -0.0068923300421999
  26    -0.015320106840228
  27    -0.010778352566411
  28     0.011872740169598
  29    -0.020207484798053
  30    -0.037088067150017
  31    0.0025366256493906
  32    0.0092237037828533
  33    -0.0076735470611211
  34    -0.020055064999606
  35    -0.036805979340959
  36    0.0025482033415156
  37     0.011354634467635
  38    -0.0041270306896729
  39      0.43096242828096
  40      0.16112295649323
  41    -0.012698117358243
  42    -0.026056482885525
  43     0.014959089197011
  44     0.015754531854935
  45     0.027204180877828
  46    -0.00096303653695963
  47    -0.00020370329519996
  48    0.00065643389114486
  49     -0.02382702050931
  50    -0.027161453823418
  51     -0.00122609730462
  52    -0.00073112322360617
  53    0.00034199156144199
  54    0.0083261831415176
  55     0.014730006159133
  56    -0.001413512400979
  57    -0.00034690194100447
  58    3.7428157819158e-05
 Sym= A
 Ene=               4
 Spin= Alpha
 Occup=    1.00000
   1    -0.0023911381642179
   2    -0.020567953737667
   3    -0.015462993333742
   4    -0.025084817850066
   5    0.00040536594116691
   6    3.081890166809e-05
   7    -0.015718573259514
   8    0.0018911463300631
   9    -0.014198654295469
  10    -0.0021686322725771
  11     0.016308841774818
  12    0.00096168174739546
  13    0.0039641166682239
  14    0.00010377383686652
  15     -0.01349537886554
  16      0.18285642802136
  17      0.11089927205169
  18      0.12417990741798
  19    0.00050538271313248
  20      0.34639475676915
  21     0.060310977630245
  22    6.4669828575806e-05
  23      0.16694922628829
  24     0.018949923152152
  25     0.013728314062931
  26    0.00023895808989857
  27    0.0022822248945615
  28    3.2856991044124e-05
  29      0.43096264151779
  30       0.1611233240933
  31    -0.012698091659215
  32    7.3282289556794e-05
  33    -0.030045085374653
  34    -0.020208189797913
  35    -0.037088568894035
  36    0.0025366746367634
  37    0.0020335914176168
  38     0.011824734099704
  39    -0.020055551374577
  40    -0.036805660122122
  41    0.0025482704475054
  42    -0.0021031150574615
  43     0.011896880615397
  44    -0.023826862499179
  45     -0.02716124513749
  46    -0.0012261271340754
  47    6.9184339128858e-05
  48    -0.00080417922373527
  49    0.0083208027519359
  50     0.014727861642998
  51    -0.0014137322639892
  52    0.00014129170837627
  53    -0.00031932724012816
  54     0.015759021487671
  55      0.02720634396033
  56    -0.00096292112184024
  57    -0.00046656591852293
  58    -0.0005044211720137
 Sym= A
 Ene=               5
 Spin= Alpha
 Occup=    1.00000
   1    -0.013498230989624
   2      0.18285762481656
   3      0.11089998099334
   4     -0.12418155727946
   5       0.3256787627574
   6     -0.11799106249355
   7    -0.060311803840741
   8      0.15690367433768
   9    -0.057035813015681
  10    -0.0080278601826854
  11    0.0046646675623672
  12    -0.011099537905765
  13    -0.013293460726503
  14    -0.012911577965827
  15    -0.002389242339181
  16    -0.020566456430018
  17    -0.015462167272242
  18     0.025086604171655
  19    0.00016980455198756
  20    0.0003810317704735
  21      0.01571946898201
  22    -0.012694598421177
  23    0.0066381350078987
  24    -0.0028624942914973
  25    0.0054804810696288
  26    0.00066973895975451
  27    0.0035634415056613
  28    -0.015360762481732
  29    0.0083308201253394
  30     0.014731525955188
  31    0.0014134155681504
  32    -0.000251674836946
  33    0.00024135898814516
  34     0.015754435112554
  35     0.027204415376033
  36    0.00096312976831059
  37    -0.00063384757279388
  38    -0.00026578130595636
  39     -0.02382830054908
  40    -0.027161870708087
  41    0.0012262149993954
  42    -0.00073185726720645
  43    0.00034032743596655
  44    -0.020048450324989
  45    -0.036803345553868
  46    -0.0025480424312276
  47     0.010460263565311
  48    -0.006045719283759
  49       0.4309625915181
  50      0.16112318011253
  51     0.012698042393357
  52    -0.028208060059527
  53     0.010345133475967
  54    -0.020211784394599
  55    -0.037089744257013
  56    -0.0025368464828357
  57     0.011806921048447
  58    -0.0021333226627959
 Sym= A
 Ene=               6
 Spin= Alpha
 Occup=    1.00000
   1    -0.002388950486506
   2    -0.020566376688531
   3    -0.015462055726607
   4    -0.025085609454955
   5    -0.00022909987431246
   6    0.00033874424983148
   7    -0.015718965096662
   8      0.01135097396894
   9    0.0087385787402097
  10    -0.0030248198492141
  11    -0.0080646459535486
  12    -0.00039089285084344
  13     0.003469745704793
  14     -0.01417578688319
  15    -0.013498186362742
  16      0.18285630046827
  17      0.11089922508053
  18      0.12417987925682
  19     -0.30023973914767
  20     -0.17275913479216
  21     0.060310991919416
  22     -0.14461482016793
  23    -0.083418458900978
  24    -0.004030313897443
  25    -0.0068358253171149
  26     0.015081208039271
  27    -0.010985357761871
  28     -0.01190552457725
  29    -0.020055325322775
  30    -0.036805730135562
  31    0.0025482597385513
  32    -0.0092514549152354
  33    -0.0077698208457786
  34      0.43096275953388
  35      0.16112350922222
  36    -0.012698086533549
  37      0.02598315256903
  38     0.015086021125057
  39    -0.020208684295712
  40     -0.03708866001873
  41    0.0025366955850697
  42    -0.011257282709093
  43    -0.0041512349839063
  44    0.0083243899726424
  45     0.014729158353551
  46    -0.0014136195662433
  47    0.00020596727247317
  48    0.00028178265337437
  49     0.015759392539167
  50     0.027206302386087
  51    -0.00096291963012985
  52    0.00067007667155865
  53    -0.00015173189593497
  54    -0.023827742482659
  55    -0.027161860701757
  56    -0.0012261662171043
  57    0.00066182398427463
  58    0.00046207326375555
 Sym= A
 Ene=               7
 Spin= Alpha
 Occup=    1.00000
   1    -0.013497171940923
   2      0.18285555737702
   3      0.11089877492124
   4      -0.1241790352157
   5    -0.060657045554682
   6      0.34104385236265
   7    -0.060310607039215
   8    -0.029058054982017
   9      0.16440154378625
  10     0.017962516152534
  11    -0.013514199456335
  12    -0.0062273847505658
  13    0.0017123091373338
  14    0.0024163752013372
  15    -0.0023904924053321
  16    -0.020565305889961
  17    -0.015461343269206
  18     0.025085654144237
  19    -0.00040914676754336
  20    -4.3904645222391e-05
  21     0.015718975961121
  22    0.00060129840720389
  23    -0.014313219868907
  24    -0.0024590308475553
  25    -0.016043174359203
  26    -0.00093902279647612
  27    0.0037963799851276
  28    0.0029344168519777
  29    -0.023828608393919
  30    -0.027162343163077
  31     0.001226183145389
  32    7.1374630024685e-05
  33    -0.00080399391146505
  34    0.0083269431586505
  35     0.014729640202311
  36    0.0014135125249514
  37    -8.3278866599385e-05
  38    -0.00033880775636746
  39     0.015759304789905
  40     0.027206488510001
  41    0.00096293183830171
  42    0.00054691336886277
  43    -0.00041584479033002
  44       0.4309629157858
  45      0.16112376805976
  46       0.0126981009832
  47    0.0051448440726026
  48    -0.029601360118803
  49    -0.020215427133091
  50    -0.037091375622495
  51    -0.002536911915897
  52    -0.0040556851580581
  53     0.011291717366106
  54    -0.020050641515947
  55    -0.036803729860809
  56    -0.0025480816589633
  57    5.3785945222612e-06
  58     0.012081613185923
 Sym= A
 Ene=               8
 Spin= Alpha
 Occup=    1.00000
   1     0.010894525641965
   2     -0.19907651377614
   3     -0.14917574075648
   4      -0.3653022041502
   5    -3.9731949471509e-06
   6    -2.4042968404977e-06
   7     -0.16967917623461
   8    -1.9700919745825e-06
   9    -1.1265799933413e-06
  10     0.016071936974535
  11    5.3628630373535e-08
  12    2.3245375670836e-07
  13     -0.02783740774106
  14    2.1401259658439e-07
  15     0.010893627842169
  16      -0.1990783807797
  17      -0.1491768858995
  18      0.36530129675148
  19    1.2104627287682e-06
  20    -8.8561790155244e-07
  21      0.16967876620792
  22    7.587225071953e-07
  23    -3.4731780491317e-07
  24     0.016071853703993
  25    7.9095219809284e-08
  26    -6.0245291942442e-08
  27    -0.027837328877477
  28    2.3431116575303e-07
  29     0.022212820313556
  30     0.037259949069712
  31    0.0092371214090324
  32    -8.4105453028169e-07
  33    0.0014136138386709
  34     0.022212561914911
  35     0.037259369085704
  36    0.0092371177543467
  37    -0.001223737992225
  38    -0.00070758928326965
  39     0.022214861988548
  40     0.037260801594998
  41    0.0092370579156391
  42    0.0012245738739897
  43    -0.00070599431819431
  44      0.02221323095448
  45     0.037259729973488
  46    -0.0092371128772919
  47    -0.00024471782425147
  48    0.0013921606129414
  49     0.022211974897854
  50     0.037259017719442
  51    -0.0092371505406814
  52    0.0013279646351128
  53    -0.00048439405143432
  54     0.022218613372857
  55     0.037262038707585
  56    -0.0092369314128522
  57    -0.0010831792401552
  58    -0.00090771782217229
 Sym= A
 Ene=               9
 Spin= Alpha
 Occup=    0.00000
   1      -1.0424634529952
   2       -2.045670304848
   3       6.6709928778933
   4     0.070328404902826
   5    -0.016450285341194
   6      0.03618777419612
   7      0.46873232474421
   8     0.023911357411339
   9    -0.047646694827224
  10     0.018437463444576
  11    -0.035486771327602
  12    -0.010208123194191
  13     0.055524808489886
  14     0.023498242781922
  15      0.11181661777142
  16      0.13013976832781
  17      -2.3197137867836
  18      0.22487085078112
  19    -0.0037827409179004
  20    0.0050987183389479
  21       1.2697934643664
  22    -0.014280756860328
  23     0.029472096460615
  24     0.040023100120192
  25    -0.0086227006427152
  26    0.0016481759114424
  27    -0.073108697638693
  28    0.0055895030049446
  29       0.1299700234471
  30    -0.034134046549563
  31    -0.056151221846457
  32    -0.00094046714142411
  33    0.0032069828803229
  34      0.13379176967015
  35    -0.020212311551155
  36    -0.057592258667821
  37    -0.0013778967620687
  38    -0.0062147399510886
  39      0.13884731022859
  40     -0.01327753565895
  41     -0.05928825764536
  42    0.0040765577643253
  43    -0.0029130804300073
  44     -0.66652808975944
  45     -0.86498803623451
  46    -0.033500768763778
  47    -0.016829258510593
  48     0.091190712330307
  49     -0.62546195084545
  50     -0.90309227170157
  51    -0.029353093012398
  52     0.060816146083909
  53    -0.013423934096369
  54     -0.63504644635486
  55     -0.89140310949735
  56    -0.027744144521966
  57    -0.059484419751407
  58    -0.038712614929858
 Sym= A
 Ene=              10
 Spin= Alpha
 Occup=    0.00000
   1      0.11368026719172
   2       0.1273440604276
   3       -2.517506824902
   4     -0.25203895549951
   5    0.0052365305342708
   6    -0.0026165963030484
   7      -1.4039163777187
   8     0.030230368487352
   9    -0.0070352782441699
  10     0.047530108697547
  11    -0.0041701604582098
  12    0.0018893422367427
  13    -0.082900350375549
  14    0.0086145523726028
  15      -1.0551832969851
  16      -2.0691969138629
  17       6.7782589249089
  18    -0.028031721715457
  19      0.03498486714932
  20    -0.011250262943168
  21     -0.73845902011219
  22    -0.052404962280862
  23    0.0077059718350727
  24    -0.051106000853664
  25    -0.019267255487265
  26    -0.037408515413786
  27     0.063598305757641
  28     0.034174829406059
  29     -0.61594730025637
  30     -0.84366604023564
  31     0.040724675834646
  32    0.0088728639086323
  33     0.060046736875716
  34     -0.61601850004264
  35     -0.85971446377204
  36     0.038907306783497
  37    -0.046714796572914
  38    -0.033184712501937
  39     -0.64886011623778
  40     -0.82022866406364
  41     0.043189977279442
  42     0.073977719403951
  43    -0.038954795618998
  44      0.14115195256923
  45    -0.042871723096242
  46     0.059834620615941
  47    -0.0024121262836378
  48    0.0066689692236371
  49      0.13412480830113
  50    -0.057554478547686
  51     0.057235329024949
  52     0.004275987824506
  53    -0.0040949800298929
  54      0.14129968029849
  55    -0.038503495121235
  56       0.0594168137409
  57    -0.0076303089986559
  58    -0.0014896443730405
 Sym= A
 Ene=              11
 Spin= Alpha
 Occup=    0.00000
   1    0.0012630890934846
   2    0.0024891071250812
   3    -0.010897826668623
   4    0.0023998622918965
   5     -0.47443784642666
   6    -0.030665151767817
   7    0.0086342772846931
   8       2.9640595775012
   9     0.027559361653108
  10     -0.13256233657447
  11    -0.0021110959164765
  12     -0.13511093544042
  13    -0.060715216246323
  14     -0.68777329504621
  15    -0.0013223533017644
  16    -0.0033622076503651
  17    -0.0037154494588108
  18    0.0045104780314663
  19    -0.035333639152648
  20    0.0045243791622646
  21    0.0033435636830945
  22     -0.92782317274497
  23     0.057779064754912
  24    0.0088230023109332
  25    0.0058234408662903
  26     0.036754388052047
  27    0.0018160967088371
  28    -0.045534760498488
  29    -0.015996681479171
  30    -0.072531832099963
  31     0.011930002043048
  32     0.077232899534347
  33    0.0077731418751903
  34     -0.15131803200432
  35       -0.226310105631
  36    -0.034979365991723
  37    -0.010614149577107
  38    -0.049427826531306
  39      0.16646054803818
  40      0.29681974045671
  41     0.023722908819371
  42    -0.016040931794216
  43     0.055110912915318
  44      0.17956406677687
  45      0.25608489012249
  46     0.012565940832209
  47     -0.27378361104289
  48    -0.090483992004615
  49     -0.84506067212221
  50      -1.4472660748325
  51    -0.022742792674297
  52       0.1196247419886
  53     -0.16224452405636
  54      0.67853596410403
  55        1.202772615153
  56       0.0151463565195
  57    -0.012532016493481
  58      0.21635881786794
 Sym= A
 Ene=              12
 Spin= Alpha
 Occup=    0.00000
   1    -0.017772869241797
   2    -0.034473387438467
   3      0.12707262411844
   4    -0.016584989859192
   5     0.034930967684545
   6     -0.48258265889506
   7     0.067548477139344
   8    -0.032872138586089
   9       3.0148805186751
  10      0.15380731122942
  11     -0.64796103755104
  12     -0.16506526445025
  13     0.071644738758729
  14    -0.0093035288353041
  15    0.0044490567723968
  16    0.0073878593680713
  17    -0.076537241868673
  18     0.001411535302245
  19    -0.0032587473157559
  20    -0.042875014473751
  21     0.046903719784567
  22    -0.054249080983671
  23     -0.95465016538121
  24    -0.035446470314818
  25    -0.034612293201279
  26    0.0098072203535455
  27    -0.019089605934756
  28    -0.0087403694252054
  29       0.1918729329633
  30      0.30496988732895
  31     0.030639558755889
  32    -0.0018653668626054
  33    -0.042320248893284
  34     -0.10446557801835
  35     -0.22298028846251
  36    -0.0075207414409583
  37    -0.059646760181123
  38     0.044805201181435
  39    -0.077127945179778
  40    -0.099751659541303
  41    -0.027402781189905
  42     0.046154455699281
  43     0.050495539625213
  44     -0.90357022847709
  45      -1.5591730016483
  46    -0.039894107752231
  47    -0.064104808997108
  48       0.1607344466161
  49      0.27842165743676
  50      0.55314978023325
  51    -0.00047720174140683
  52     -0.13216089379505
  53     -0.22615264911073
  54      0.59132601319312
  55       0.9936052271613
  56     0.019810356599408
  57      0.23566569607741
  58    -0.092678980502696
 Sym= A
 Ene=              13
 Spin= Alpha
 Occup=    0.00000
   1    -0.027733324626108
   2     0.019474191928105
   3       2.4321572172857
   4      0.31029709078263
   5    0.0020390205044887
   6    -0.0032996768939439
   7       1.6602459794531
   8    0.0026925997432473
   9    -0.026390753500724
  10    -0.067259920465643
  11    -0.0036184234133367
  12     0.002093940363191
  13      0.11688436884751
  14    0.0049766491676503
  15      0.11736137121895
  16      0.21158961267077
  17      -1.1101525020701
  18     -0.57499065430574
  19     0.011134425842267
  20    -0.023123332654685
  21       3.4414852676688
  22     0.018507924816421
  23     0.061098988399616
  24      0.20796935733724
  25    -0.0090276078834157
  26     -0.02363719627092
  27     -0.39381289341159
  28     0.027792413186036
  29     -0.20684554612995
  30     -0.64402393892061
  31     -0.15192866303868
  32    0.00094127343245862
  33     0.096898860143947
  34      -0.1846653877938
  35     -0.58883698437829
  36     -0.15212693287829
  37     -0.07985176556293
  38     -0.05368903272039
  39     -0.22634263754539
  40     -0.61005494866229
  41     -0.14870743502622
  42     0.095811444749096
  43    -0.063398973173932
  44    -0.050639570064476
  45      0.31469687023989
  46    -0.012782470475979
  47    0.0057670130388102
  48    -0.028042767525301
  49    -0.056778871923987
  50      0.29901128105568
  51    -0.014960687551798
  52    -0.027357310550099
  53     0.010812432444881
  54    -0.059039860592148
  55      0.30113769541511
  56    -0.012700694354253
  57     0.019167788690895
  58     0.019904849085046
 Sym= A
 Ene=              14
 Spin= Alpha
 Occup=    0.00000
   1     0.005019266457601
   2     0.010015621397783
   3    -0.045489039312698
   4    0.0056563126785891
   5    -0.044103500551385
   6    -0.0052084282020477
   7    -0.025702702814268
   8     -0.95763170874944
   9    -0.076060560095808
  10    0.0083951680140902
  11    0.0062905458485274
  12     0.038897810352048
  13     0.010552757791139
  14     0.032072653280618
  15    -0.015530775282264
  16    -0.030260933693839
  17      0.11155357331563
  18     0.013153481418261
  19     -0.49379013178465
  20     0.014129963922489
  21     -0.02665870401548
  22       3.0142653852764
  23     0.020176733155161
  24     0.049247140909698
  25    0.0053284492381189
  26     -0.20704838313741
  27    -0.0064850779298178
  28      0.63462030015323
  29    -0.038558401601171
  30    -0.017497600750159
  31     0.010499358318646
  32     -0.28227260264557
  33     0.010203730886152
  34      0.77155610393791
  35       1.3545943141241
  36    -0.022993650912526
  37     0.053627851435796
  38      0.19922837739722
  39     -0.77929981606607
  40      -1.3710643774626
  41      0.03253516047812
  42     0.055127514507453
  43      -0.1895018225435
  44    -0.011054385854479
  45      0.02137030588236
  46     0.018183629232075
  47     0.076460151721435
  48      0.01274435331874
  49        0.173751011326
  50       0.2630479774358
  51    -0.032299637943012
  52    -0.025191998961146
  53     0.038197022896396
  54     -0.15414624874226
  55      -0.2916495680058
  56     0.018201505820076
  57    0.0030584674870126
  58    -0.062896619875083
 Sym= A
 Ene=              15
 Spin= Alpha
 Occup=    0.00000
   1    -0.0013396496806596
   2    -0.0054923208532057
   3    -0.054172497683552
   4    -0.013545154458088
   5    0.0043018945043031
   6    -0.047349749948338
   7    -0.036907885236722
   8     0.073515285907107
   9     -0.96893181631865
  10    -0.031870560813581
  11     0.026989273482938
  12      0.01037685251273
  13    -0.026870820389207
  14    -0.009570272750599
  15    -0.0044660602363942
  16    -0.0084615022108367
  17     0.029173884109598
  18    0.0042630793274752
  19    -0.029485246911357
  20     -0.49378441948799
  21     -0.06935496161065
  22    -0.028955320566662
  23       3.0378407745433
  24      0.18807425535874
  25      0.61756618085432
  26     0.074757676545918
  27      0.14389962988409
  28    -0.023623756170089
  29     -0.89879228631834
  30       -1.573902533993
  31     0.038315758555416
  32    -0.010064219788838
  33      0.16457436605499