[Molden Format]
made by pyscf v[2.0.1]
[Atoms] (AU)
C   1   6     0.00000000000000     0.00000000000000     0.00000000000000
C   2   6     2.85272299873892     0.00000000000000     0.00000000000000
H   3   1     3.62066923017674     0.00000000000000     1.90331545357504
F   4   9     3.65943188126013    -2.07008020110292    -1.19516136135088
F   5   9     3.65943188126013     2.07008020110292    -1.19516136135088
F   6   9    -0.80670888252121     2.07008020110292     1.19516136135089
H   7   1    -0.76794623143782    -0.00000000000000    -1.90331545357504
F   8   9    -0.80670888252121    -2.07008020110292     1.19516136135089
[GTO]
1 0
 s    8 1.00
                  6665  0.00069158396281299
                  1000  0.0053257961529341
                   228   0.027060721042034
                 64.71    0.10165684614077
                 21.06     0.2745748236174
                 7.495    0.44829431892377
                 2.797    0.28490261071525
                0.5215   0.015194859206082
 s    8 1.00
                  6665  -0.00029326965268655
                  1000  -0.0023180354739745
                   228  -0.011499786038565
                 64.71  -0.046826727009787
                 21.06   -0.12846616875047
                 7.495   -0.30126627246289
                 2.797   -0.25563070233011
                0.5215      1.093793361012
 s    1 1.00
                0.1596                   1
 p    3 1.00
                 9.439   0.056979251590039
                 2.002    0.31320721150073
                0.5456    0.76037674173753
 p    1 1.00
                0.1517                   1
 d    1 1.00
                  0.55                   1

2 0
 s    8 1.00
                  6665  0.00069158396281299
                  1000  0.0053257961529341
                   228   0.027060721042034
                 64.71    0.10165684614077
                 21.06     0.2745748236174
                 7.495    0.44829431892377
                 2.797    0.28490261071525
                0.5215   0.015194859206082
 s    8 1.00
                  6665  -0.00029326965268655
                  1000  -0.0023180354739745
                   228  -0.011499786038565
                 64.71  -0.046826727009787
                 21.06   -0.12846616875047
                 7.495   -0.30126627246289
                 2.797   -0.25563070233011
                0.5215      1.093793361012
 s    1 1.00
                0.1596                   1
 p    3 1.00
                 9.439   0.056979251590039
                 2.002    0.31320721150073
                0.5456    0.76037674173753
 p    1 1.00
                0.1517                   1
 d    1 1.00
                  0.55                   1

3 0
 s    3 1.00
                 13.01   0.033498726389998
                 1.962    0.23480080117413
                0.4446     0.8136829578829
 s    1 1.00
                 0.122                   1
 p    1 1.00
                 0.727                   1

4 0
 s    8 1.00
                 14710  0.00072067370873197
                  2207  0.0055504869689163
                 502.8   0.028254207662589
                 142.6    0.10639582836653
                 46.47    0.28668420124307
                  16.7    0.44843796582416
                 6.356    0.26464118141135
                 1.316   0.015326060993048
 s    8 1.00
                 14710  -0.00032119389049893
                  2207  -0.0025461915683188
                 502.8  -0.012643359507821
                 142.6   -0.05195749170489
                 46.47   -0.14344713812646
                  16.7   -0.33243762329603
                 6.356   -0.21865906750347
                 1.316     1.0955904138622
 s    1 1.00
                0.3897                   1
 p    3 1.00
                 22.67   0.064834021493887
                 4.977    0.34053535983101
                 1.347    0.73464640679382
 p    1 1.00
                0.3471                   1
 d    1 1.00
                  1.64                   1

5 0
 s    8 1.00
                 14710  0.00072067370873197
                  2207  0.0055504869689163
                 502.8   0.028254207662589
                 142.6    0.10639582836653
                 46.47    0.28668420124307
                  16.7    0.44843796582416
                 6.356    0.26464118141135
                 1.316   0.015326060993048
 s    8 1.00
                 14710  -0.00032119389049893
                  2207  -0.0025461915683188
                 502.8  -0.012643359507821
                 142.6   -0.05195749170489
                 46.47   -0.14344713812646
                  16.7   -0.33243762329603
                 6.356   -0.21865906750347
                 1.316     1.0955904138622
 s    1 1.00
                0.3897                   1
 p    3 1.00
                 22.67   0.064834021493887
                 4.977    0.34053535983101
                 1.347    0.73464640679382
 p    1 1.00
                0.3471                   1
 d    1 1.00
                  1.64                   1

6 0
 s    8 1.00
                 14710  0.00072067370873197
                  2207  0.0055504869689163
                 502.8   0.028254207662589
                 142.6    0.10639582836653
                 46.47    0.28668420124307
                  16.7    0.44843796582416
                 6.356    0.26464118141135
                 1.316   0.015326060993048
 s    8 1.00
                 14710  -0.00032119389049893
                  2207  -0.0025461915683188
                 502.8  -0.012643359507821
                 142.6   -0.05195749170489
                 46.47   -0.14344713812646
                  16.7   -0.33243762329603
                 6.356   -0.21865906750347
                 1.316     1.0955904138622
 s    1 1.00
                0.3897                   1
 p    3 1.00
                 22.67   0.064834021493887
                 4.977    0.34053535983101
                 1.347    0.73464640679382
 p    1 1.00
                0.3471                   1
 d    1 1.00
                  1.64                   1

7 0
 s    3 1.00
                 13.01   0.033498726389998
                 1.962    0.23480080117413
                0.4446     0.8136829578829
 s    1 1.00
                 0.122                   1
 p    1 1.00
                 0.727                   1

8 0
 s    8 1.00
                 14710  0.00072067370873197
                  2207  0.0055504869689163
                 502.8   0.028254207662589
                 142.6    0.10639582836653
                 46.47    0.28668420124307
                  16.7    0.44843796582416
                 6.356    0.26464118141135
                 1.316   0.015326060993048
 s    8 1.00
                 14710  -0.00032119389049893
                  2207  -0.0025461915683188
                 502.8  -0.012643359507821
                 142.6   -0.05195749170489
                 46.47   -0.14344713812646
                  16.7   -0.33243762329603
                 6.356   -0.21865906750347
                 1.316     1.0955904138622
 s    1 1.00
                0.3897                   1
 p    3 1.00
                 22.67   0.064834021493887
                 4.977    0.34053535983101
                 1.347    0.73464640679382
 p    1 1.00
                0.3471                   1
 d    1 1.00
                  1.64                   1

[5d]
[7f]
[9g]

[MO]
 Sym= A
 Ene=               0
 Spin= Alpha
 Occup=    1.00000
   1    -0.00020731122499464
   2    8.1808191050804e-05
   3    0.0031565808006372
   4     0.000477174999332
   5    2.7882474354896e-09
   6    -9.0585683000964e-06
   7    0.0015364400002376
   8    1.1717273701996e-09
   9    0.00042671118726607
  10    -3.8485145335419e-05
  11    0.00010498385440568
  12    3.195654693254e-10
  13    8.8998463241963e-05
  14    3.311113058646e-10
  15       1.0019103605905
  16     0.004218597032149
  17    -0.0073980636866277
  18    0.00059802513126949
  19    3.9103454386154e-09
  20    -0.0011201694539618
  21    0.0015813289025987
  22    1.0624781868078e-09
  23    -0.00074104182160738
  24    -0.00012189933429201
  25    -0.0001049023445312
  26    -6.0514771962046e-10
  27    -0.00035541812088572
  28    -7.8059325258877e-10
  29    0.00099382507508463
  30    0.0015447297262361
  31    -0.00023675006922109
  32    1.3064280938938e-10
  33    -7.4992895022439e-05
  34    0.00015538714037741
  35    0.00067439855782303
  36    -0.00015150913757432
  37    -7.1206427685342e-05
  38    0.00031199699494973
  39    0.00013196036610392
  40    0.00013498977417217
  41    -0.00079168951461083
  42    -0.00039389717966122
  43    4.2795039449652e-05
  44    3.0359789260821e-05
  45    -0.00011378522756053
  46    8.7626899403005e-05
  47    7.2034921798224e-05
  48    0.00015538464220355
  49    0.00067440318378951
  50    -0.00015150518436411
  51    -7.123162793902e-05
  52    -0.00031198968926747
  53    0.00013196376222076
  54    0.00013497235441753
  55    0.00079169509418636
  56    -0.00039389509275626
  57    4.2795048604369e-05
  58    3.0359404108663e-05
  59    0.00011378513191938
  60    8.7627208530528e-05
  61    -7.2034475621611e-05
  62    -6.738569280649e-06
  63    -3.5905596581324e-06
  64    -0.00015344680594079
  65    2.8199604091748e-06
  66    -1.1290942544476e-05
  67    7.908698946266e-06
  68    8.6053489042958e-05
  69    8.8137403044982e-05
  70    -3.9829879091047e-05
  71    -1.8878256232361e-05
  72    -1.2267306425911e-05
  73    1.3653160360821e-05
  74    2.3186940693934e-05
  75    -1.1003895398237e-05
  76    -5.8029256640713e-05
  77    0.00043621040742615
  78    9.8921619429934e-05
  79    8.2302977329067e-11
  80    1.7912947247198e-05
  81    -6.7391611721344e-06
  82    -3.5881081263051e-06
  83    -0.00015344263304617
  84    2.8084955171546e-06
  85    1.1290527740686e-05
  86    7.9104805053407e-06
  87    8.6045544529587e-05
  88    -8.813728731341e-05
  89    -3.9828931462748e-05
  90    -1.8878224922995e-05
  91    -1.2267096017846e-05
  92    -1.3653077986247e-05
  93    2.3186824439208e-05
  94    1.1003663044175e-05
 Sym= A
 Ene=               1
 Spin= Alpha
 Occup=    1.00000
   1       1.0019103607378
   2    0.0042186001523643
   3    -0.0073980608349106
   4    -0.00059801807906599
   5    -3.2844564813159e-09
   6    0.0011201689320934
   7    -0.0015813267602112
   8    3.9671394891402e-10
   9    0.00074104149456907
  10    -0.00012190007205661
  11    -0.00010490227802692
  12    -6.8234339651364e-10
  13    -0.00035541776134991
  14    1.5111211290828e-09
  15    -0.00020731188015764
  16    8.1811417642673e-05
  17    0.0031565824359324
  18    -0.00047718167535429
  19    1.8771770362457e-09
  20    9.0542632783862e-06
  21    -0.0015364416676318
  22    5.5061044055281e-10
  23    -0.00042671236394328
  24    -3.8485392413435e-05
  25    0.00010498358221374
  26    -3.8397172164264e-10
  27    8.8999029416675e-05
  28    -1.1882699585443e-10
  29    -5.8033087195184e-05
  30    0.00043620824227702
  31    -9.8921589165922e-05
  32    6.8767433559358e-11
  33    -1.7912713445233e-05
  34    -6.7384946779187e-06
  35    -3.5862035741496e-06
  36    -0.00015344122593679
  37    -2.8078969838766e-06
  38    1.1290649800888e-05
  39    -7.9092855274287e-06
  40    -8.6044676382254e-05
  41    -8.8137444085825e-05
  42    3.9829846904156e-05
  43    -1.8878284309446e-05
  44    -1.2267164938041e-05
  45    1.3653103872536e-05
  46    2.3186819826412e-05
  47    -1.1003764496048e-05
  48    -6.7389355832405e-06
  49    -3.592194978979e-06
  50    -0.0001534488804808
  51    -2.81747808532e-06
  52    -1.1296358719055e-05
  53    -7.912860807835e-06
  54    -8.6051329815259e-05
  55    8.8133806132843e-05
  56    3.9827143008753e-05
  57    -1.887842383482e-05
  58    -1.2267280468292e-05
  59    -1.3653112033612e-05
  60    2.3186835870752e-05
  61    1.1003988326993e-05
  62    0.00015538535001596
  63    0.00067439743559501
  64    -0.00015151070713557
  65    7.1228446015441e-05
  66    -0.00031198162487811
  67    -0.00013196469361845
  68    -0.00013497475684154
  69    0.00079170015877885
  70    0.0003938941731689
  71    4.2795127887257e-05
  72    3.0359449261207e-05
  73    -0.00011378531517119
  74    8.7627400072761e-05
  75    7.2034595076234e-05
  76    0.0009938236508922
  77     0.001544727856329
  78    0.00023675021775961
  79    -5.2783356326481e-11
  80    7.4992862875047e-05
  81    0.00015538524288843
  82    0.00067440097431427
  83    -0.00015150754963476
  84    7.1208625611428e-05
  85    0.00031199959764756
  86    -0.00013196796397535
  87    -0.00013498884424329
  88    -0.00079168806304195
  89    0.00039389221783102
  90    4.2795084005133e-05
  91    3.0359608148956e-05
  92    0.0001137849908455
  93    8.7626907784935e-05
  94    -7.203473425037e-05
 Sym= A
 Ene=               2
 Spin= Alpha
 Occup=    1.00000
   1    3.8585269779416e-05
   2    3.8043040810751e-05
   3    -0.0011882799367333
   4    -0.00014019389612746
   5    1.8786048359619e-05
   6    -1.264311402682e-05
   7    -0.00064336698313006
   8    -0.00018163904449548
   9    0.00021452910527131
  10    1.9504738661317e-05
  11    1.5205222396794e-05
  12    -2.9676567923359e-05
  13    -8.2552222205372e-05
  14    -6.7772949456749e-06
  15    -0.0001693955506415
  16    0.00032072441922222
  17    0.0034584329863124
  18    0.00039812656269931
  19    0.00082363067588456
  20    -0.00050047090587055
  21    -0.00013315617635224
  22    0.0012570499052249
  23    -0.00099890280508268
  24    -4.2315764760854e-05
  25    -5.6599493207751e-05
  26    -9.7838111875196e-05
  27    -6.2528442017731e-05
  28    8.3390909151706e-05
  29    -0.00023911718245708
  30    -0.00010032818585641
  31    -9.0327705512355e-06
  32    -0.0001386274635439
  33    8.8606464078252e-05
  34    8.2314798387309e-05
  35    0.00013501860023548
  36    -0.0005763038751675
  37    4.8794109561307e-06
  38    -2.9449490794878e-05
  39    -4.041168136227e-05
  40    9.0330773622837e-06
  41    -0.00040633965176419
  42    0.00015725913053161
  43    1.9500949204224e-05
  44    -1.23953871369e-05
  45    -5.0438143837808e-07
  46    1.9625784429829e-05
  47    9.385848584635e-06
  48       1.0010260761186
  49    0.00078840646766264
  50    -0.005774631239048
  51    -0.00075144572825427
  52    -0.0019394601711901
  53    0.0011687951260746
  54    0.00025890820919122
  55    0.00056413557972826
  56    -0.00022252155894486
  57    1.9222586034611e-05
  58    4.0535778427122e-05
  59    8.2741935712311e-05
  60    7.4801142197461e-05
  61    -5.9943770875647e-05
  62    2.5803992654624e-05
  63    5.0714167211255e-05
  64    -4.4998222874002e-05
  65    1.8241821769576e-05
  66    -2.0520927618774e-06
  67    1.7307449693355e-05
  68    -7.8546875930119e-05
  69    -3.7902821586354e-06
  70    -2.8051921262785e-05
  71    8.666550442248e-06
  72    1.0963927075756e-05
  73    -2.8814684405497e-06
  74    -1.7399067727912e-05
  75    1.1652417090233e-06
  76    8.3200288351951e-05
  77    -9.0873195393524e-05
  78    -5.6965092324086e-05
  79    -1.2177123597707e-05
  80    -5.0881765307034e-06
  81    -2.5473809709174e-05
  82    -4.570041730768e-05
  83    0.00011024077743145
  84    -2.3392854914164e-05
  85    9.1723050088055e-06
  86    6.0272541226746e-07
  87    0.00017615384002849
  88    1.0343710208743e-05
  89    -2.3373726750741e-05
  90    1.0391720331507e-06
  91    3.1586585350017e-06
  92    1.2039240288523e-06
  93    3.2527871972026e-06
  94    -2.5862246062469e-06
 Sym= A
 Ene=               3
 Spin= Alpha
 Occup=    1.00000
   1    -0.0001692656183362
   2    0.00032183340611246
   3    0.0034588521578367
   4    -0.00039861494837462
   5    -0.00082485984658635
   6    0.00050122903895555
   7    0.00013335285029429
   8    -0.0012570064680168
   9    0.00099885239490203
  10    -4.2217606100576e-05
  11    -5.6583250829813e-05
  12    -9.800463528062e-05
  13    -6.2598081494596e-05
  14    8.3322997984764e-05
  15    3.8590252387258e-05
  16    3.7932015173555e-05
  17    -0.0011887621792059
  18    0.00014038816701709
  19    -1.8880980792438e-05
  20    1.2682526089717e-05
  21    0.00064363209234853
  22    0.00018152988459137
  23    -0.00021437506698985
  24    1.9496241966233e-05
  25    1.517126136786e-05
  26    -2.9690895620127e-05
  27    -8.2541874566016e-05
  28    -6.7250905989575e-06
  29    8.3185306186202e-05
  30    -9.0915291085941e-05
  31    5.6959645871549e-05
  32    1.2172139455036e-05
  33    5.0897662185417e-06
  34    2.5798635607222e-05
  35    5.0712322705018e-05
  36    -4.4941765690035e-05
  37    -1.8264125942868e-05
  38    2.0489803397065e-06
  39    -1.7320566177753e-05
  40    7.8499621288334e-05
  41    3.8287301621574e-06
  42    2.802162426604e-05
  43    8.6668394201854e-06
  44    1.096284367255e-05
  45    -2.8805701188167e-06
  46    -1.7399256541012e-05
  47    1.1676684751641e-06
  48    -2.5475480759364e-05
  49    -4.5673874704173e-05
  50    0.0001103745840497
  51    2.3336390481257e-05
  52    -9.2206619509411e-06
  53    -5.7188349761978e-07
  54    -0.00017620699251442
  55    -1.0401661319129e-05
  56     2.33906675235e-05
  57    1.0410625725515e-06
  58    3.161949755318e-06
  59    1.2052574171377e-06
  60    3.2492428317258e-06
  61    -2.5910889455059e-06
  62    8.2312905367373e-05
  63    0.00013497886509074
  64    -0.00057636522554877
  65    -4.9071696929135e-06
  66    2.9548420326677e-05
  67    4.044089772966e-05
  68    -9.0628066845772e-06
  69    0.00040642514389405
  70    -0.00015723436216979
  71    1.9489631288182e-05
  72    -1.2387521761919e-05
  73    -5.0516226942902e-07
  74    1.9606265978385e-05
  75    9.3841353153043e-06
  76    -0.00023887245276619
  77    -0.00010037252126633
  78    8.9974232477592e-06
  79    0.00013857041806853
  80    -8.8573137039508e-05
  81       1.0010260665977
  82    0.00078223134185394
  83    -0.0057818613145103
  84    0.00075512978377168
  85     0.001943466919565
  86    -0.0011691880414454
  87    -0.00025640258711751
  88    -0.00056144507391328
  89    0.00022230137146585
  90    1.9169903639838e-05
  91    4.0492755400773e-05
  92    8.2684555730594e-05
  93    7.4749546488223e-05
  94    -5.984325981133e-05
 Sym= A
 Ene=               4
 Spin= Alpha
 Occup=    1.00000
   1    3.8545750135157e-05
   2    3.7895843133501e-05
   3    -0.0011881265672826
   4    -0.00014026608605406
   5    -1.8579352674906e-05
   6    -1.2427925411507e-05
   7    -0.0006430034932281
   8    0.00018151509569444
   9    0.00021503245450514
  10    1.9527743985724e-05
  11    1.5302845484447e-05
  12    2.9664031239845e-05
  13    -8.2603598366566e-05
  14    6.9260568822089e-06
  15    -0.00016978062406388
  16    0.0003178219143891
  17    0.0034575757257217
  18    0.00039684774676952
  19    -0.00082031490165862
  20    -0.00049851637582556
  21    -0.00013308455015112
  22    -0.0012567997913464
  23    -0.00099923066621767
  24    -4.2196946733486e-05
  25    -5.6528164638571e-05
  26    9.7686278212559e-05
  27    -6.2466412343355e-05
  28    -8.3202202576826e-05
  29    -0.00023895447094837
  30    -9.947670801091e-05
  31    -9.0995331897822e-06
  32    0.00013873078690559
  33    8.867772224482e-05
  34        1.001026077033
  35    0.00080470219102015
  36    -0.0057553645618123
  37    -0.00074912859329054
  38    0.0019297898568117
  39    0.0011611946811116
  40    0.00026037509851383
  41    -0.00057058296965197
  42    -0.00022762635561013
  43    1.9248238184515e-05
  44    4.0628228498924e-05
  45    -8.2996893866345e-05
  46    7.4974766860265e-05
  47    6.0071262443476e-05
  48    8.2335767581824e-05
  49    0.00013511958216561
  50    -0.00057636035835264
  51    4.8479948706375e-06
  52    2.9259638917638e-05
  53    -4.0340203972342e-05
  54    9.0280356641594e-06
  55       0.0004061893489
  56    0.00015729405555823
  57    1.953908206806e-05
  58    -1.241421248356e-05
  59    5.0605972233998e-07
  60    1.9671201049097e-05
  61    -9.3856340548526e-06
  62    -2.5488820577998e-05
  63    -4.5746713752041e-05
  64    0.00011019153478773
  65    -2.3477344346674e-05
  66    -9.13145325984e-06
  67    5.9584154990207e-07
  68    0.00017608169261483
  69    -1.0304648447786e-05
  70    -2.3456419746558e-05
  71    1.0358002161895e-06
  72    3.1568044310954e-06
  73    -1.1983520746982e-06
  74    3.2546590914871e-06
  75    2.5813880069612e-06
  76    8.3140816431816e-05
  77    -9.0374325853294e-05
  78    -5.6964668405356e-05
  79    1.219452817046e-05
  80    -5.0853707774977e-06
  81    2.5826711328001e-05
  82    5.0744140984326e-05
  83    -4.5216023550475e-05
  84    1.8205540098892e-05
  85    2.103180187451e-06
  86    1.7303053956889e-05
  87    -7.8617054201476e-05
  88    3.733186689653e-06
  89    -2.8098438216222e-05
  90    8.6657025869382e-06
  91    1.0967580166249e-05
  92    2.8870995122658e-06
  93    -1.7400309659913e-05
  94    -1.1666525339794e-06
 Sym= A
 Ene=               5
 Spin= Alpha
 Occup=    1.00000
   1    -0.00016962296726207
   2    0.0003189834356752
   3    0.0034579057669076
   4    -0.00039735830820452
   5    0.00082169608157392
   6    0.00049929236137962
   7    0.00013310951096868
   8    0.0012569328133045
   9    0.00099907182906355
  10    -4.2271475848551e-05
  11    -5.6552220635027e-05
  12    9.7733570289978e-05
  13    -6.2504673898953e-05
  14    -8.328619672713e-05
  15    3.8561070954363e-05
  16    3.7958815508785e-05
  17    -0.0011881610816276
  18    0.00014023455271297
  19    1.8657714109631e-05
  20    1.2514627846028e-05
  21    0.0006431511816582
  22    -0.00018157780892679
  23    -0.00021481574415478
  24    1.9518297963099e-05
  25    1.5262751090341e-05
  26    2.9669713480844e-05
  27    -8.2583575286764e-05
  28    6.8644396677266e-06
  29    8.3163361900505e-05
  30    -9.0595622313731e-05
  31    5.6966060314243e-05
  32    -1.2187656600152e-05
  33    5.0870055247088e-06
  34    -2.5482482874992e-05
  35    -4.5725069795104e-05
  36    0.00011020857674861
  37    2.3433397021167e-05
  38    9.1524800601276e-06
  39    -5.9451728465064e-07
  40    -0.00017611883482121
  41    1.0321697777577e-05
  42    2.3423353215694e-05
  43    1.0371256741514e-06
  44    3.157228464991e-06
  45    -1.200394768474e-06
  46    3.2538511457744e-06
  47    2.5830518957444e-06
  48    2.5816562781482e-05
  49    5.0726735994071e-05
  50    -4.5126375621424e-05
  51    -1.8216622973913e-05
  52    -2.0845773147172e-06
  53    -1.7310671357718e-05
  54    7.8589368786093e-05
  55    -3.7565433670167e-06
  56    2.8076028547538e-05
  57    8.665810025116e-06
  58    1.0965959095076e-05
  59    2.8849349440374e-06
  60    -1.739955215913e-05
  61    -1.1661935538996e-06
  62         1.00102607716
  63    0.00079809060883873
  64    -0.0057631859075066
  65    0.00075001994000886
  66    -0.0019334783426272
  67    -0.0011647594212203
  68    -0.00025981404753163
  69    0.00056812954150694
  70    0.00022522368806592
  71    1.9246180476617e-05
  72    4.0587020016885e-05
  73    -8.2887309325072e-05
  74    7.490850595634e-05
  75    6.0022106938436e-05
  76    -0.00023906187781301
  77    -9.9857200646155e-05
  78    9.0736411067891e-06
  79    -0.0001386904924601
  80    -8.864929918716e-05
  81    8.2325978823098e-05
  82     0.000135076706842
  83    -0.00057631108862581
  84    -4.8527356841668e-06
  85    -2.9341303046246e-05
  86    4.0350022090826e-05
  87    -9.021545694463e-06
  88    -0.0004062455936425
  89    -0.00015729523050176
  90    1.9523673588103e-05
  91    -1.2406269723076e-05
  92    5.0549003431144e-07
  93    1.965378644208e-05
  94    -9.3861325708138e-06
 Sym= A
 Ene=               6
 Spin= Alpha
 Occup=    1.00000
   1    0.0020442162418973
   2     0.032248164358372
   3     0.077662493754817
   4     0.043579418126639
   5     0.001590585032457
   6    -0.0073639203661668
   7     0.024955178778805
   8     0.028156494264685
   9    -0.0048098440163826
  10    -0.00010199476074655
  11    -0.00058646669234882
  12    -0.0021502846917402
  13    0.0020039286824463
  14    -0.00070396336609138
  15    0.0027127513189627
  16    0.0025451311123232
  17    -0.014715935068204
  18    -3.3442245683541e-05
  19    -0.0017028723242145
  20    0.00026322446304545
  21     0.031824486982594
  22    -0.021535968506667
  23     0.010081494784951
  24    -0.023474079308833
  25    -0.0092427323553724
  26     -0.01809567001519
  27     0.011021266644737
  28    -0.026093481409171
  29    -0.052230423023259
  30    -0.048285334413167
  31    -0.0017791183033298
  32    0.0031109662801584
  33    0.0010753469313084
  34    0.0015863984737998
  35    0.0024130689107698
  36    -0.010635289571485
  37      0.53482042383322
  38    -0.023083361440258
  39      0.40142831588784
  40      0.37172443478318
  41    -0.018192256469612
  42      0.27652855674458
  43    0.0068764619655987
  44    0.0021312629584843
  45    0.0066691041263311
  46    -0.0035332242287626
  47    0.0095938251371987
  48    -0.00087628887254856
  49    -0.00029036392118121
  50     0.010855465916423
  51    -0.0025488368419301
  52    -0.0022904288873808
  53    -0.00090203330826578
  54    -0.0045223215469352
  55    -0.0022487056482889
  56    0.0010496108307731
  57    -0.00057382331192532
  58    -0.00021081530725008
  59    -0.00027320882391554
  60    0.00034216966530091
  61    -0.0002925023605694
  62    0.0013530338398618
  63    -0.0016201266566461
  64    -0.021131722841384
  65    -0.0077910112644531
  66    0.0074342596421527
  67     0.006848133640476
  68    -0.0073699100970851
  69    0.0088162936164592
  70    0.0091693989279483
  71    -0.00011568087597716
  72    -0.00043990946461847
  73    -0.00019495624400273
  74    0.00055242112636373
  75    -0.00052389860083129
  76     0.006734878535387
  77    -0.025662369097354
  78    -0.00089039503971476
  79    -0.00038875912712042
  80    0.00014279537064957
  81    -0.00048547994379641
  82    -0.00041328011814004
  83    0.0053441049199823
  84    -0.0002431266916566
  85    -0.0022883960340489
  86    -0.0024817861568062
  87    -0.0033889773901007
  88    -0.0024896156289074
  89    -0.0025579346842613
  90    8.9656528699717e-06
  91    -5.069682429467e-05
  92    -0.00027040201694517
  93    6.5126537467811e-05
  94    0.00063855290896809
 Sym= A
 Ene=               7
 Spin= Alpha
 Occup=    1.00000
   1    0.0020435968346216
   2     0.032245053104718
   3     0.077662981415085
   4     0.043576383322622
   5    -0.001592154243712
   6    -0.0073634460208315
   7     0.024954766886956
   8    -0.028155789509259
   9    -0.0048099889316468
  10    -0.00010191182652845
  11    -0.0005859251176402
  12      0.00215003525649
  13    0.0020035917458527
  14    0.00070324642635211
  15    0.0027104945415473
  16    0.0025268964013395
  17    -0.014723148964709
  18    -4.370683886354e-05
  19     0.001691463168243
  20    0.00027739114823491
  21     0.031822042457995
  22     0.021540788297574
  23      0.01008492634626
  24    -0.023477675714144
  25    -0.0092400714952007
  26     0.018098965129355
  27      0.01101696180902
  28     0.026091053454552
  29    -0.052234298356237
  30    -0.048284382113768
  31    -0.0017796289940105
  32    -0.003111712526324
  33     0.001075687954404
  34    -0.00087642418889545
  35    -0.00028826245724075
  36     0.010862676520358
  37    -0.0025502901988349
  38    0.0022971573747056
  39    -0.00089960363770325
  40    -0.0045234986760086
  41    0.0022552714729148
  42     0.001051459502193
  43    -0.00057365691480008
  44    -0.00021081196263368
  45     0.000273218250917
  46    0.00034248778352937
  47    0.00029246845604924
  48    0.0015827191264906
  49    0.0025039692737574
  50    -0.010527583430913
  51      0.53478528481381
  52     0.023200260510196
  53      0.40146896006386
  54      0.37169934230634
  55     0.018271518439644
  56      0.27655740944237
  57    0.0068780550858986
  58    0.0021305378760626
  59    -0.0066685384977035
  60    -0.0035307104227507
  61    -0.009594126876867
  62    -0.00048553499551105
  63    -0.00041419992932969
  64    0.0053427014430244
  65    -0.00024496017039199
  66    0.0022883070129156
  67    -0.0024804731372297
  68    -0.0033897814769456
  69    0.0024903422990291
  70    -0.0025572429238679
  71    8.9319160411832e-06
  72    -5.0722081584679e-05
  73    0.00027030919931588
  74    6.522006174754e-05
  75    -0.00063843038693673
  76    0.0067342857597006
  77    -0.025661500236157
  78    -0.00089052356184661
  79    0.00038856917104282
  80    0.0001427060785282
  81    0.0013528883215611
  82    -0.0016198195276477
  83    -0.021130723005156
  84    -0.0077901499842922
  85    -0.0074336442916177
  86    0.0068479239169653
  87    -0.0073689144933202
  88    -0.0088158630885489
  89    0.0091689384592853
  90    -0.00011568090742068
  91    -0.00043991989113749
  92    0.00019490132003347
  93    0.0005523861866262
  94    0.00052389159541079
 Sym= A
 Ene=               8
 Spin= Alpha
 Occup=    1.00000
   1    -0.0027125758580245
   2    -0.0025437417938432
   3     0.014717078567493
   4    -3.4493452181628e-05
   5    0.0017041632349156
   6    0.00026430500205817
   7     0.031823519866757
   8     0.021537759357057
   9     0.010082935681406
  10     0.023475284747151
  11    0.0092419880658301
  12    -0.018096392207857
  13    -0.011019684448542
  14    -0.026092851164975
  15    -0.0020440598050938
  16    -0.032247186051316
  17    -0.077662028744038
  18     0.043578090509792
  19     -0.00159067382932
  20    -0.0073641643056515
  21     0.024954330876831
  22     -0.02815631066787
  23    -0.0048106837197987
  24    0.00010200278238889
  25    0.00058645614548013
  26    -0.0021502019482851
  27    -0.0020038673344976
  28    -0.00070394000724317
  29    -0.0067348565475143
  30     0.025662683574712
  31    -0.00089043228640539
  32    0.00038872606028738
  33    0.0001427739934754