[Molden Format]
made by pyscf v[2.0.1]
[Atoms] (AU)
C   1   6     0.00000000000000     0.00000000000000     0.00000000000000
C   2   6     2.89040035821050     0.00000000000000     0.00000000000000
H   3   1     3.65380793584534     0.00000000000000     1.93990930394644
H   4   1     3.65380793584534    -1.68001073825540    -0.96995465197322
H   5   1     3.65380793584534     1.68001073825540    -0.96995465197322
H   6   1    -0.76340757763484    -1.68001073825540    -0.96995465197322
H   7   1    -0.76340757763484     0.00000000000000     1.93990930394644
H   8   1    -0.76340757763484     1.68001073825540    -0.96995465197322
[GTO]
1 0
 s    8 1.00
                  6665  0.00069158396281299
                  1000  0.0053257961529341
                   228   0.027060721042034
                 64.71    0.10165684614077
                 21.06     0.2745748236174
                 7.495    0.44829431892377
                 2.797    0.28490261071525
                0.5215   0.015194859206082
 s    8 1.00
                  6665  -0.00029326965268655
                  1000  -0.0023180354739745
                   228  -0.011499786038565
                 64.71  -0.046826727009787
                 21.06   -0.12846616875047
                 7.495   -0.30126627246289
                 2.797   -0.25563070233011
                0.5215      1.093793361012
 s    1 1.00
                0.1596                   1
 p    3 1.00
                 9.439   0.056979251590039
                 2.002    0.31320721150073
                0.5456    0.76037674173753
 p    1 1.00
                0.1517                   1
 d    1 1.00
                  0.55                   1

2 0
 s    8 1.00
                  6665  0.00069158396281299
                  1000  0.0053257961529341
                   228   0.027060721042034
                 64.71    0.10165684614077
                 21.06     0.2745748236174
                 7.495    0.44829431892377
                 2.797    0.28490261071525
                0.5215   0.015194859206082
 s    8 1.00
                  6665  -0.00029326965268655
                  1000  -0.0023180354739745
                   228  -0.011499786038565
                 64.71  -0.046826727009787
                 21.06   -0.12846616875047
                 7.495   -0.30126627246289
                 2.797   -0.25563070233011
                0.5215      1.093793361012
 s    1 1.00
                0.1596                   1
 p    3 1.00
                 9.439   0.056979251590039
                 2.002    0.31320721150073
                0.5456    0.76037674173753
 p    1 1.00
                0.1517                   1
 d    1 1.00
                  0.55                   1

3 0
 s    3 1.00
                 13.01   0.033498726389998
                 1.962    0.23480080117413
                0.4446     0.8136829578829
 s    1 1.00
                 0.122                   1
 p    1 1.00
                 0.727                   1

4 0
 s    3 1.00
                 13.01   0.033498726389998
                 1.962    0.23480080117413
                0.4446     0.8136829578829
 s    1 1.00
                 0.122                   1
 p    1 1.00
                 0.727                   1

5 0
 s    3 1.00
                 13.01   0.033498726389998
                 1.962    0.23480080117413
                0.4446     0.8136829578829
 s    1 1.00
                 0.122                   1
 p    1 1.00
                 0.727                   1

6 0
 s    3 1.00
                 13.01   0.033498726389998
                 1.962    0.23480080117413
                0.4446     0.8136829578829
 s    1 1.00
                 0.122                   1
 p    1 1.00
                 0.727                   1

7 0
 s    3 1.00
                 13.01   0.033498726389998
                 1.962    0.23480080117413
                0.4446     0.8136829578829
 s    1 1.00
                 0.122                   1
 p    1 1.00
                 0.727                   1

8 0
 s    3 1.00
                 13.01   0.033498726389998
                 1.962    0.23480080117413
                0.4446     0.8136829578829
 s    1 1.00
                 0.122                   1
 p    1 1.00
                 0.727                   1

[5d]
[7f]
[9g]

[MO]
 Sym= A
 Ene=               0
 Spin= Alpha
 Occup=    1.00000
   1    -0.00014005282427253
   2    0.00014266110639261
   3    0.0024516836243946
   4    0.00031299063605947
   5    1.5228173680506e-07
   6    2.7873439919238e-07
   7    0.0011518461643494
   8    6.3422293889876e-08
   9    1.2997628005574e-07
  10    0.0001057548578205
  11    -6.0087992241659e-09
  12    -7.5890831024671e-09
  13    -0.00018314472164693
  14    5.0930631415595e-09
  15       1.0022731896493
  16     0.005486336163721
  17    -0.0088800799209762
  18    0.0001974255580178
  19    2.3651949083602e-07
  20    1.0670018267242e-07
  21    0.00078082298946231
  22    1.0766243817003e-07
  23    3.9627021818954e-08
  24    8.8988731631251e-05
  25    -8.8796278339099e-09
  26    -1.1880540060642e-08
  27    -0.00015412246766266
  28    2.1971590332543e-09
  29    0.00047817513927676
  30     0.001270730273743
  31    9.0386760372826e-05
  32    7.2051830927605e-09
  33    0.00036675633423661
  34    0.00047789684782274
  35    0.0012706427219479
  36    9.0397461666196e-05
  37    -0.0003176346131988
  38    -0.00018338744808808
  39    0.00047823401803148
  40    0.0012707741082419
  41    9.0385453397691e-05
  42    0.00031762240182132
  43    -0.00018337207801716
  44    -0.00011304475276564
  45    7.8929883430011e-05
  46    4.1803399950704e-05
  47    1.4034236293685e-05
  48    8.1085623427125e-06
  49    -0.00011259284879244
  50    7.9105263636255e-05
  51    4.1819521475463e-05
  52    4.5670305932528e-09
  53    -1.6232827593297e-05
  54    -0.00011284443220713
  55    7.8992039190009e-05
  56    4.1811135734903e-05
  57    -1.4042641939083e-05
  58    8.1186888970448e-06
 Sym= A
 Ene=               1
 Spin= Alpha
 Occup=    1.00000
   1       1.0022731744147
   2    0.0054866014571204
   3    -0.0088799135224107
   4    -0.00019752457884732
   5    -5.0267478584671e-07
   6    2.7957310949736e-07
   7    -0.00078086794082415
   8    -2.445207131791e-07
   9    1.5300306296809e-07
  10    8.9002272642697e-05
  11    -3.1012820107219e-08
  12    2.5409907908469e-08
  13    -0.0001541278467401
  14    2.2006118179431e-08
  15    -0.00014008772604596
  16    0.00014246175129314
  17    0.0024515616570728
  18    -0.00031311785710645
  19    4.5249912089688e-08
  20    -4.2464148852956e-07
  21    -0.0011519027993404
  22    4.3239424707777e-08
  23    -2.1683769940936e-07
  24    0.00010571600086237
  25    -2.9932309008212e-08
  26    -2.5038847742828e-09
  27    -0.00018314862503107
  28    2.5413151043118e-08
  29    -0.00011335227950355
  30     7.87939891039e-05
  31    -4.1795561150807e-05
  32    1.6549268738842e-09
  33    -1.6187353782427e-05
  34    -0.00011283450060746
  35    7.9020215596095e-05
  36    -4.1813076761849e-05
  37    1.4047094273042e-05
  38    8.0959147067997e-06
  39    -0.00011270561024865
  40    7.9131519523826e-05
  41    -4.1815357510101e-05
  42    -1.4047343501249e-05
  43    8.0979695437247e-06
  44    0.00047850679219338
  45    0.0012708402240336
  46    -9.0376091070724e-05
  47    -0.00031760469627136
  48    -0.00018335137403839
  49    0.0004785347132031
  50    0.0012708900603317
  51    -9.0376569777739e-05
  52    -1.5504943182174e-08
  53    0.00036673156938931
  54    0.00047774554362978
  55    0.0012705012177656
  56    -9.040160070859e-05
  57    0.00031762920143929
  58    -0.00018338342566986
 Sym= A
 Ene=               2
 Spin= Alpha
 Occup=    1.00000
   1    -0.0023853038932783
   2    -0.020570777381671
   3    -0.015533361865148
   4    -0.025082733973265
   5    7.5027256897823e-05
   6    4.4305175938321e-05
   7    -0.015794700177394
   8     0.012809448625645
   9    0.0073963139598312
  10    -0.0021950043844669
  11    -0.0081424203986035
  12    -0.00013407812469384
  13    0.0039567851133976
  14    -0.014102447534317
  15    -0.013507421660173
  16      0.18283633590682
  17      0.11099168079431
  18      0.12416481460563
  19     -0.30001545165802
  20     -0.17322101173056
  21     0.060250661259413
  22      -0.1447926407418
  23    -0.083599495231166
  24    -0.003821671451033
  25    -0.0068525501203697
  26     0.015153904688036
  27    -0.010879601786981
  28    -0.011868404363194
  29    -0.020136000809963
  30    -0.036900863372612
  31    0.0025414476865936
  32    -0.0092399399230965
  33    -0.0077127378016141
  34      0.43095480593907
  35      0.16107142966875
  36    -0.012684825451457
  37     0.026031186184622
  38     0.015028895944144
  39    -0.020126769772313
  40    -0.036896719082358
  41    0.0025411396165921
  42    -0.011299878979231
  43    -0.0041455918401944
  44    -0.024190261842252
  45    -0.027541103515868
  46    -0.0011841968787265
  47    0.00069130525644072
  48    0.00039915935374549
  49     0.012246473639947
  50     0.021120716596934
  51    -0.0011897237154718
  52    0.00015827423498629
  53    0.00046556392400781
  54     0.012244452005485
  55     0.021119168300487
  56    -0.001189766957042
  57    0.00048237501231234
  58    -9.5705921011527e-05
 Sym= A
 Ene=               3
 Spin= Alpha
 Occup=    1.00000
   1    -0.013508818211242
   2      0.18283628157489
   3      0.11099203108974
   4     -0.12415830907175
   5    -2.4730019650766e-06
   6      0.34643399771677
   7     -0.06024759740477
   8    -1.0986856544657e-06
   9      0.16719509219552
  10     0.018909496983858
  11    -0.013704755258158
  12    1.2394509914461e-07
  13    0.0022448410230099
  14    -6.8435141179666e-09
  15    -0.0023859447687198
  16    -0.020568125940444
  17    -0.015531341709003
  18     0.025077544568636
  19    -2.2266797631781e-06
  20    -8.8023406574647e-05
  21     0.015792228376484
  22    -9.6932167996044e-07
  23    -0.014792002957698
  24    -0.0023964089065706
  25    -0.016284440408298
  26    1.1139631800465e-07
  27    0.0038409162528575
  28    2.8161076429369e-08
  29    -0.024191641974455
  30    -0.027542259042516
  31    0.0011840900329102
  32    -6.7291875080951e-08
  33    -0.00079823765802661
  34     0.012247033630008
  35     0.021120182058018
  36    0.0011895426665198
  37    -0.00032397395545538
  38    -0.00036981285046792
  39     0.012243985220903
  40     0.021119113546118
  41     0.001189655749178
  42    0.00032409299660269
  43    -0.00036995928087071
  44    -0.020132930112409
  45     -0.03689957566452
  46    -0.002541183592425
  47    0.0020594181535222
  48     0.011858597865016
  49      0.43095487178984
  50      0.16107155775825
  51     0.012684982101494
  52    -7.5006177531112e-08
  53    -0.030058022271021
  54    -0.020136378687781
  55    -0.036900846615532
  56    -0.0025413091683854
  57    -0.0020592879839173
  58     0.011858436101886
 Sym= A
 Ene=               4
 Spin= Alpha
 Occup=    1.00000
   1    -0.0023855494547019
   2     -0.02056748838718
   3     -0.01553108336651
   4    -0.025080448068332
   5    -7.0163507017646e-05
   6    4.6898000845448e-05
   7    -0.015793527286908
   8    -0.012807554254665
   9    0.0073972453808684
  10    -0.0021949009634791
  11    -0.0081421698306324
  12    0.00013383707490358
  13    0.0039568613858503
  14     0.014102755117003
  15    -0.013507875391787
  16      0.18283173085597
  17       0.1109890583225
  18      0.12415868475035
  19      0.30002608945142
  20     -0.17321349813343
  21     0.060247762585465
  22      0.14479756753595
  23    -0.083595979509593
  24    -0.0038215843580447
  25    -0.0068523748279574
  26    -0.015154439894037
  27    -0.010878995860274
  28     0.011868596485895
  29    -0.020133907966538
  30     -0.03689937021485
  31    0.0025412551633554
  32    0.0092402650183169
  33    -0.0077125989063574
  34    -0.020141890815268
  35    -0.036902271001458
  36    0.0025415474093097
  37     0.011298960419098
  38    -0.0041460798084408
  39      0.43095508995364
  40      0.16107210870983
  41     -0.01268495768528
  42    -0.026030809057068
  43     0.015029095959769
  44     0.012241377256749
  45     0.021118095720772
  46    -0.0011898119750784
  47    -0.00048249936626446
  48    -9.5785059634445e-05
  49     0.012248999521751
  50     0.021120814092564
  51    -0.001189530986649
  52    -0.00015812997088633
  53    0.00046531277930268
  54    -0.024187311838627
  55    -0.027540690514989
  56    -0.0011839947259738
  57    -0.0006914614726516
  58    0.00039940878421544
 Sym= A
 Ene=               5
 Spin= Alpha
 Occup=    1.00000
   1    -0.013507143872309
   2      0.18283516044331
   3      0.11099089247464
   4      -0.1241653210012
   5      0.30001840411477
   6     -0.17321716028593
   7    -0.060250880289234
   8      0.14479422386935
   9    -0.083597510502867
  10    -0.0038214676753303
  11    0.0068522587274898
  12    -0.015154055431721
  13    -0.010879563091226
  14     -0.01186869580928
  15    -0.0023852408310852
  16    -0.020571554649271
  17    -0.015533899675451
  18     0.025083434737576
  19    -7.8744258345739e-05
  20    4.1345815496897e-05
  21     0.015795006088408
  22    -0.012811368176847
  23    0.0073947217765482
  24    -0.0021950892826731
  25     0.008142122361222
  26    0.00013426715374345
  27    0.0039566298598515
  28    -0.014102733285853
  29     0.012243477461255
  30     0.021119264333196
  31    0.0011898355877004
  32    -0.00015839024634665
  33    0.00046571093330376
  34     0.012248685898171
  35     0.021121412974312
  36    0.0011896545918329
  37    -0.00048222344072893
  38    -9.5644576736827e-05
  39    -0.024191973896575
  40     -0.02754178977074
  41    0.0011842730613243
  42    -0.00069128589927074
  43    0.00039898805387811
  44    -0.020131402725327
  45    -0.036898878137965
  46    -0.0025413034370246
  47     0.011299642008627
  48    -0.0041456621137686
  49    -0.020132864135504
  50    -0.036899131204908
  51    -0.0025413674496682
  52    0.0092400327853954
  53    -0.007712837109311
  54      0.43095506200296
  55      0.16107182095778
  56     0.012684811353823
  57     -0.02603107960114
  58     0.015029008177757
 Sym= A
 Ene=               6
 Spin= Alpha
 Occup=    1.00000
   1    -0.0023842862988553
   2    -0.020568351696095
   3    -0.015531951511096
   4    -0.025085409712872
   5    3.6178943962127e-06
   6    -8.6508642914345e-05
   7    -0.015795924682913
   8    1.7966389892508e-06
   9    -0.014791270515636
  10    -0.0023960244627818
  11     0.016284378949923
  12    -1.8325727248999e-07
  13    0.0038404034277367
  14    -1.9895381501078e-07
  15      -0.0135079357897
  16      0.18283279836755
  17       0.1109894090057
  18      0.12416458946287
  19    -1.1889332893206e-06
  20      0.34643396466765
  21     0.060250581045984
  22    -7.2781993267644e-07
  23      0.16719501175432
  24     0.018909716935866
  25     0.013704682763545
  26    6.1624535602977e-08
  27    0.0022444554006749
  28    -2.1704542092745e-07
  29      0.43095511948097
  30      0.16107208603799
  31    -0.012684814404459
  32    -3.8497635250518e-08
  33    -0.030058003764572
  34    -0.020133092075894
  35    -0.036898766083905
  36    0.0025413825528887
  37     0.002059356953491
  38     0.011858539647642
  39    -0.020135317641061
  40    -0.036900136763616
  41    0.0025414427788928
  42    -0.0020593127713938
  43     0.011858469685856
  44     0.012244522645444
  45      0.02111913835216
  46    -0.001189820555585
  47    -0.00032397610587504
  48    -0.00036987096163928
  49    -0.024187861247672
  50    -0.027540608389991
  51    -0.001184153019088
  52    1.1204228234158e-07
  53    -0.00079852469360627
  54     0.012250106081103
  55      0.02112171814873
  56    -0.0011896369823983
  57    0.00032380312288044
  58    -0.00036964171457693
 Sym= A
 Ene=               7
 Spin= Alpha
 Occup=    1.00000
   1    -0.013508610429866
   2      0.18283098801107
   3      0.11098841047843
   4     -0.12416155658438
   5     -0.30002314014524
   6     -0.17321728246139
   7    -0.060249185305896
   8     -0.14479651125207
   9    -0.083597627697721
  10    -0.0038216934171206
  11    0.0068523278376184
  12     0.015154294667846
  13    -0.010879185625166
  14     0.011868885031706
  15    -0.0023851007400693
  16    -0.020565075832785
  17    -0.015529788285746
  18     0.025084854105309
  19    7.8785197834788e-05
  20    4.2713561596445e-05
  21     0.015795640675069
  22      0.01281158957231
  23    0.0073953870615402
  24    -0.0021949345610945
  25    0.0081421821939791
  26    -0.00013427127833771
  27     0.003956500150878
  28     0.014102957478676
  29     0.012248263257121
  30      0.02112035029638
  31    0.0011896577484559
  32    0.00015839396923784
  33    0.00046521707053748
  34    -0.024189299271808
  35    -0.027541899699121
  36    0.0011841562978499
  37    0.00069162760214294
  38    0.00039922537418285
  39     0.012251995451411
  40     0.021122097425989
  41    0.0011895358986913
  42    0.00048189831343323
  43    -9.5412527521243e-05
  44      0.43095550760303
  45      0.16107275948498
  46     0.012684876678134
  47     0.026030887506156
  48     0.015028977022851
  49    -0.020136283803316
  50    -0.036900020192211
  51    -0.002541427635684
  52    -0.0092401786673396
  53    -0.0077124760202522
  54    -0.020138082691806
  55    -0.036901071168519
  56    -0.0025414784678726
  57    -0.011299217521902
  58    -0.0041459958900685
 Sym= A
 Ene=               8
 Spin= Alpha
 Occup=    1.00000
   1     0.010890930122436
   2     -0.19909280085252
   3     -0.14915174812555
   4     -0.36528863794153
   5    -1.2239187435921e-06
   6    4.6948764276948e-06
   7     -0.16968088657885
   8    -6.7465550848952e-07
   9    2.3610467901285e-06
  10     0.016081719580487
  11    -2.9083085768157e-07
  12    6.2677158031277e-08
  13      -0.0278538791637
  14    1.4110724891069e-07
  15     0.010890938194598
  16     -0.19909443763948
  17     -0.14915276506366
  18      0.36528784081262
  19    1.9726051684703e-06
  20    -2.237643677676e-06
  21       0.1696805287862
  22    1.0041010145941e-06
  23    -1.2797873299132e-06
  24     0.016081365313403
  25    -3.0913303871157e-07
  26    -1.0016840426877e-07
  27    -0.027853971903732
  28    1.3553081536633e-07
  29     0.022213556075365
  30     0.037249907927148
  31    0.0092403706897711
  32    6.1388714661891e-08
  33     0.001416279477821
  34     0.022215404889377
  35     0.037251095411303
  36    0.0092403225058014
  37    -0.0012264390411636
  38    -0.00070819170912741
  39     0.022218518872314
  40     0.037252595282852
  41    0.0092402224331414
  42     0.001226346983788
  43    -0.00070806767419496
  44     0.022215797126509
  45       0.0372509589321
  46    -0.0092403130133908
  47    -0.0012264766874131
  48    -0.00070793853429929
  49     0.022221105292611
  50     0.037253392075066
  51    -0.0092401377544382
  52    -3.8719813707357e-08
  53    0.0014158760126252
  54     0.022213718150698
  55     0.037249831750489
  56    -0.0092403750663555
  57    0.0012265290440775
  58    -0.00070801347222333
 Sym= A
 Ene=               9
 Spin= Alpha
 Occup=    0.00000
   1      -1.0608864957499
   2      -2.0774530514642
   3       6.8706615001495
   4    -0.060457346717178
   5    -0.011895664785903
   6     0.033277685146523
   7       1.2597763913453
   8     0.010197584523277
   9    -0.056724316731173
  10    -0.045881079819913
  11    -0.029228031784905
  12     0.016157010407968
  13      0.14660872651101
  14      0.01408457879966
  15      0.11695736541224
  16      0.12309957175171
  17      -2.8692518342694
  18      0.29722608106377
  19    -0.0017094609056178
  20    0.0049195993245457
  21        1.642012208768
  22    -0.0082246925917913
  23     0.030588202679377
  24     0.056362801908079
  25    -0.0077307554054932
  26    -0.00077111495336567
  27    -0.099928828266401
  28    0.0031546548844699
  29      0.14226890439037
  30     -0.10247193630952
  31     -0.05953124326964
  32    0.0008857042631523
  33    0.0097911391289409
  34      0.14842496856637
  35    -0.087961994945065
  36    -0.060872407214106
  37    -0.0075046592524698
  38    -0.0077532796403244
  39      0.15026140727225
  40     -0.08225137583312
  41    -0.061905893523688
  42    0.0086230439096001
  43    -0.007376254504991
  44      -0.5891863953163
  45     -0.74679720719052
  46    -0.063615267155827
  47    -0.047135906392089
  48    -0.016734854153641
  49     -0.60225440981487
  50      -0.7115112475587
  51     -0.06567534550332
  52    -0.0027955424137994
  53     0.063822294299266
  54     -0.57127286691888
  55     -0.75313327064616
  56     -0.06130997062959
  57     0.036207306311724
  58    -0.013653214494597
 Sym= A
 Ene=              10
 Spin= Alpha
 Occup=    0.00000
   1      0.11343181079621
   2      0.13774652305471
   3      -2.2206288999043
   4     -0.20296193368716
   5    -0.0022267299174055
   6    -0.0057753595211497
   7      -1.1966646125576
   8    -0.017263526877639
   9    -0.030815963794465
  10     0.037419286420055
  11    -0.010050492665067
  12    6.417753762305e-05
  13    -0.060591215463048
  14    -0.0027958662478031
  15      -1.0328800217237
  16      -2.0274063623649
  17       6.6055386843173
  18    -0.083213959422838
  19    -0.014276413975009
  20    -0.039623563901309
  21     -0.33377967364622
  22     0.039506564725811
  23     0.046580612183826
  24    -0.039218897723829
  25    -0.042506099117658
  26    0.0079372819010773
  27    -0.029109317529988
  28    -0.0073639011129815
  29     -0.62527231760573
  30     -0.92733188268492
  31     0.025024835060886
  32    -0.0042902097275408
  33     0.060903105615173
  34     -0.66622186618525
  35      -0.8820296295424
  36     0.030574695901435
  37     -0.07716907748296
  38    -0.051820340504778
  39     -0.66856994904065
  40     -0.91541814963506
  41      0.03056426991094
  42      0.06984930365891
  43    -0.052547963548397
  44      0.12857051356311
  45    -0.020395610293987
  46     0.056723871980542
  47    -0.0028883636871516
  48    0.00062137621069583
  49      0.13762891686884
  50    0.0030873326642614
  51     0.059697805849841
  52    0.0014774759348239
  53    0.0040010147762121
  54      0.13372703680655
  55    -0.0095637566045584
  56     0.057266996095064
  57    0.0035649061310773
  58    0.0019368219789922
 Sym= A
 Ene=              11
 Spin= Alpha
 Occup=    0.00000
   1    0.0041524564847602
   2    0.0081599987651933
   3    -0.026476485732196
   4    -0.00053095998966518
   5     -0.54284853512018
   6    0.0002789804194543
   7    0.00055253850286452
   8        3.224425814908
   9     0.015949644241152
  10    0.0057547779693779
  11    -0.0062068645336284
  12     -0.44523271149823
  13    0.0040959270167933
  14     -0.28932553608809
  15    -0.00048633352190912
  16    -0.00067072844076653
  17    0.0076963870385175
  18    -0.00052800647474746
  19     -0.10016769334356
  20    -3.4803716889097e-05
  21    -0.0039377854023915
  22      -1.1302953246185
  23    -0.0041518186720569
  24    -0.00057972003020717
  25    -0.00071045312070839
  26     0.067056233196634
  27    -0.00018173208670596
  28     0.051261620539615
  29    0.00045755429795278
  30    0.0011416620637274
  31    0.0004975637307205
  32     0.082061562432617
  33    -0.00035691283731954
  34     -0.19336416025968
  35     -0.33424184568821
  36    -0.010241251584373
  37    -0.0078654713330798
  38    -0.051692271348487
  39       0.1913414510713
  40      0.33270919156071
  41     0.010448391004831
  42    -0.0073463807518018
  43     0.051846532627898
  44      0.80378195399399
  45       1.4566300558673
  46      0.09347336624057
  47     0.045192819835073
  48      0.14893897628581
  49    -0.0055537217014696
  50    -0.0046800377555364
  51    -0.00083438900394198
  52     -0.21371733896121
  53     0.002245567332823
  54     -0.78961395293183
  55      -1.4397150156838
  56    -0.092346074774634
  57     0.041725202338635
  58     -0.14802282686057
 Sym= A
 Ene=              12
 Spin= Alpha
 Occup=    0.00000
   1    -0.018600496452704
   2     -0.03649749399171
   3      0.12762354669379
   4    -0.0067081025115048
   5     0.018285211937518
   6     -0.53069724130068
   7    -0.012383867266077
   8    -0.011922512843868
   9       3.2253947025823
  10      0.43445328740098
  11     -0.28841565110454
  12    -0.026562034096986
  13      0.20744151212777
  14    -0.022748137178181
  15    0.0053988272571449
  16     0.011370707368159
  17    -0.026533290768749
  18    -0.0091005619047602
  19     0.002574607785599
  20     -0.10110844771238
  21     0.011170410871969
  22     0.011580030783035
  23      -1.1290170143398
  24    -0.063488219479302
  25     0.051987707988655
  26     0.001334949106166
  27    -0.028946717460288
  28    -0.004936990961917
  29      0.22531126483954
  30      0.38512891551417
  31     0.010321571866366
  32    -0.0013062859600358
  33    -0.037827238927446
  34     -0.10718533534833
  35     -0.18670722492802
  36    -0.0082424608950582
  37    -0.052263936772538
  38     0.051743019116912
  39     -0.10958791490841
  40     -0.19491249767047
  41    -0.0065755519107519
  42     0.050460209747905
  43     0.051276136553122
  44      0.46201344568465
  45      0.81134700776768
  46     0.053293597929474
  47      0.15343969215891
  48     -0.12023911058563
  49     -0.95664829762859
  50      -1.6967446550066
  51     -0.11868615417001
  52    0.0042227293834219
  53      0.13928092705374
  54      0.43121058201144
  55      0.81754873197831
  56     0.049293085680269
  57     -0.13584939758116
  58       -0.125518923102
 Sym= A
 Ene=              13
 Spin= Alpha
 Occup=    0.00000
   1     0.043143038330495
   2       0.1026924308772
   3     0.054514025163545
   4     -0.55183905835591
   5    0.0080377772178854
   6    -0.020838607682638
   7       3.2997231359371
   8    -0.0033846882832538
   9     0.028267708319673
  10     -0.27310565316264
  11     0.015376915153113
  12    -0.013603844006026
  13      0.41727438531636
  14    -0.0090034363954547
  15    0.0032393075061269
  16    -0.056099032205967
  17      -2.0305299104136
  18      0.29156768955604
  19    0.0008966656729865
  20    -0.002293457043042
  21       1.4381945699502
  22    0.0042429604044435
  23    -0.016045144990193
  24     0.068122611728615
  25    0.0038682725305274
  26    0.00075622474569406
  27     -0.11534299643362
  28    -0.0018650010677592
  29      0.03431000784167
  30     -0.28916352213921
  31    -0.0038304871439662
  32    -0.00056024989002175
  33     0.027711629751879
  34     0.031242661308881
  35     -0.29699667148023
  36    -0.003213282406538
  37    -0.024604215923076
  38    -0.012123224025048
  39     0.030495389822543
  40     -0.30014115192261
  41    -0.0025659459409782
  42     0.023823216373772
  43    -0.012319329727744
  44      0.31572042600488
  45      0.74650515105425
  46      -0.1324108078952
  47      0.10289836532148
  48     0.051453411492725
  49      0.32715947447299
  50      0.72865474227698
  51     -0.12932813437912
  52    0.0022075772082134
  53     -0.12423330618418
  54      0.30066834260589
  55      0.74755842195999
  56     -0.13495019472684
  57    -0.094821767452353
  58     0.049339461929245
 Sym= A
 Ene=              14
 Spin= Alpha
 Occup=    0.00000
   1    -0.0086749994639385
   2    -0.021254790293689
   3    -0.0030907121894327
   4    -0.026075858768389
   5    0.00062489097306951
   6    -0.095071190356773
   7    -0.0075883513076179
   8    0.0065177859701531
   9      -1.1172304364243
  10    -0.049353940274495
  11    -0.042123215259535
  12    -0.00020023391860716
  13    -0.048058227398361
  14    0.00050166484481389
  15    0.0094032175384169
  16     0.018367374819223
  17    -0.080929577670572
  18    -0.019732922456032
  19    0.0041693561814576
  20     -0.52861094141652
  21    -0.027412974515267
  22    -0.017337432461441
  23       3.2178997193133
  24      0.34893660755837
  25      0.33095383803005
  26    -0.00020361472187798
  27      0.29775898493546
  28    -0.00034006448728845
  29     -0.90984107971815
  30      -1.6515059478494
  31     0.092745610945501
  32    0.0015681850294702
  33      0.13417012798687
  34      0.49139211512861
  35      0.84824124051616
  36      -0.0637448001525
  37      0.15983262757297
  38      -0.1249374373876
  39       0.4971814340901
  40      0.86349892127668
  41    -0.064161699076966
  42     -0.15894182708043
  43     -0.12364101814797
  44     -0.11147050215681
  45     -0.18998409473779
  46    0.0053091881553145
  47    -0.052234930098505
  48     0.051429709618015
  49      0.21798872212439
  50      0.37813389771645
  51    -0.015389255014241
  52    -0.00052369848818738
  53    -0.038465934889541
  54     -0.11357457875473
  55     -0.19393932189401
  56    0.0053363143432766
  57     0.052194583472599
  58      0.05084828008326
 Sym= A
 Ene=              15
 Spin= Alpha
 Occup=    0.00000
   1    -0.00013968190336857
   2    0.0013155883405973
   3     0.023287372209888
   4    0.0058334988856201
   5    -0.083882507300668
   6    -0.0019880071286451
   7     0.012310103815882
   8      -1.0737366498483
   9    -0.010915213058796
  10    -0.00078022222833922
  11    -0.0035436422105602
  12     0.076333990614641
  13    0.0032059149322623
  14    -0.017772320148066
  15     0.012488715125869
  16      0.02458910863288
  17    -0.075467322532517
  18    0.0061054277318761
  19     -0.43398866628985
  20    -0.014902028535412
  21    -0.0024592331189798
  22       3.2064962771663
  23     0.016021625299564
  24    -0.011433725269041
  25    -0.015226882923741
  26     -0.61896831542495
  27    -0.019734809972489
  28      0.45291024725876
  29     0.016946581391275
  30     0.005124403132937
  31    0.0001693766955504