[Molden Format]
made by pyscf v[2.0.1]
[Atoms] (AU)
C   1   6     0.00000000000000     0.00000000000000     0.00000000000000
C   2   6     2.89040035821050     0.00000000000000     0.00000000000000
H   3   1     3.65380793584534     0.00000000000000     1.93990930394644
H   4   1     3.65380793584534    -1.68001073825540    -0.96995465197322
H   5   1     3.65380793584534     1.68001073825540    -0.96995465197322
H   6   1    -0.76340757763484     1.24694966449241     1.48605674244297
H   7   1    -0.76340757763484     0.66348805817456    -1.82291845791239
H   8   1    -0.76340757763484    -1.91043772266697     0.33686171546942
[GTO]
1 0
 s    8 1.00
                  6665  0.00069158396281299
                  1000  0.0053257961529341
                   228   0.027060721042034
                 64.71    0.10165684614077
                 21.06     0.2745748236174
                 7.495    0.44829431892377
                 2.797    0.28490261071525
                0.5215   0.015194859206082
 s    8 1.00
                  6665  -0.00029326965268655
                  1000  -0.0023180354739745
                   228  -0.011499786038565
                 64.71  -0.046826727009787
                 21.06   -0.12846616875047
                 7.495   -0.30126627246289
                 2.797   -0.25563070233011
                0.5215      1.093793361012
 s    1 1.00
                0.1596                   1
 p    3 1.00
                 9.439   0.056979251590039
                 2.002    0.31320721150073
                0.5456    0.76037674173753
 p    1 1.00
                0.1517                   1
 d    1 1.00
                  0.55                   1

2 0
 s    8 1.00
                  6665  0.00069158396281299
                  1000  0.0053257961529341
                   228   0.027060721042034
                 64.71    0.10165684614077
                 21.06     0.2745748236174
                 7.495    0.44829431892377
                 2.797    0.28490261071525
                0.5215   0.015194859206082
 s    8 1.00
                  6665  -0.00029326965268655
                  1000  -0.0023180354739745
                   228  -0.011499786038565
                 64.71  -0.046826727009787
                 21.06   -0.12846616875047
                 7.495   -0.30126627246289
                 2.797   -0.25563070233011
                0.5215      1.093793361012
 s    1 1.00
                0.1596                   1
 p    3 1.00
                 9.439   0.056979251590039
                 2.002    0.31320721150073
                0.5456    0.76037674173753
 p    1 1.00
                0.1517                   1
 d    1 1.00
                  0.55                   1

3 0
 s    3 1.00
                 13.01   0.033498726389998
                 1.962    0.23480080117413
                0.4446     0.8136829578829
 s    1 1.00
                 0.122                   1
 p    1 1.00
                 0.727                   1

4 0
 s    3 1.00
                 13.01   0.033498726389998
                 1.962    0.23480080117413
                0.4446     0.8136829578829
 s    1 1.00
                 0.122                   1
 p    1 1.00
                 0.727                   1

5 0
 s    3 1.00
                 13.01   0.033498726389998
                 1.962    0.23480080117413
                0.4446     0.8136829578829
 s    1 1.00
                 0.122                   1
 p    1 1.00
                 0.727                   1

6 0
 s    3 1.00
                 13.01   0.033498726389998
                 1.962    0.23480080117413
                0.4446     0.8136829578829
 s    1 1.00
                 0.122                   1
 p    1 1.00
                 0.727                   1

7 0
 s    3 1.00
                 13.01   0.033498726389998
                 1.962    0.23480080117413
                0.4446     0.8136829578829
 s    1 1.00
                 0.122                   1
 p    1 1.00
                 0.727                   1

8 0
 s    3 1.00
                 13.01   0.033498726389998
                 1.962    0.23480080117413
                0.4446     0.8136829578829
 s    1 1.00
                 0.122                   1
 p    1 1.00
                 0.727                   1

[5d]
[7f]
[9g]

[MO]
 Sym= A
 Ene=               0
 Spin= Alpha
 Occup=    1.00000
   1       1.0022681450264
   2    0.0054709237652073
   3    -0.0088586189208449
   4    -0.00021046949936636
   5    1.4075772739678e-07
   6    -1.209508059977e-07
   7    -0.00078997430309613
   8    6.2600017655865e-08
   9    -5.6806986949721e-08
  10    8.8985322194117e-05
  11    6.2742041741662e-09
  12    -2.9973072348918e-09
  13    -0.00015410909076615
  14    2.1213003122628e-09
  15    -0.00012776428042151
  16    0.00016410107989573
  17    0.0023523646300485
  18    -0.00031277731451823
  19    1.6294056854405e-07
  20    2.6512565913148e-08
  21    -0.0011805785229175
  22    7.2892305830935e-08
  23    1.4498160998467e-08
  24    9.9401237882361e-05
  25    6.9720349228576e-09
  26    -7.944798402412e-09
  27    -0.00017216238252327
  28    -9.7901699158047e-11
  29    -9.9279906726335e-05
  30    0.00011009244380852
  31    -4.7041411283814e-05
  32    -3.2815132100061e-06
  33    -1.8342544682631e-05
  34    -9.9441819951297e-05
  35    0.00011001422543887
  36    -4.7035513684072e-05
  37    1.752261216926e-05
  38    6.3202280765087e-06
  39    -9.9213836148303e-05
  40    0.00011009789371119
  41    -4.7043558566155e-05
  42    -1.4244868642683e-05
  43    1.2022908735067e-05
  44    0.00047747823079991
  45    0.0012609060817428
  46    -8.9270512377071e-05
  47    0.00023816203268479
  48    0.00028190341035789
  49    0.00047762781413092
  50    0.0012609811944679
  51    -8.9265096289897e-05
  52    0.0001250598469465
  53    -0.00034719710946596
  54    0.00047736160662055
  55     0.001260876294039
  56    -8.9274448801487e-05
  57    -0.00036322553860507
  58    6.5295444026382e-05
 Sym= A
 Ene=               1
 Spin= Alpha
 Occup=    1.00000
   1    -0.0001277899038365
   2    0.00016397511285503
   3    0.0023522901602638
   4    0.00031287569408409
   5    3.5963194159147e-08
   6    -5.5334512247999e-08
   7    0.0011806260206145
   8    3.8060318884557e-08
   9    -4.0942384230638e-08
  10    9.9403694615319e-05
  11    1.5378925936399e-08
  12    4.2716055255436e-09
  13    -0.00017215276735533
  14    -4.4333541659444e-08
  15       1.0022681443756
  16    0.0054709728544654
  17    -0.0088585866818221
  18    0.00021045636177521
  19    -8.90664091326e-07
  20    2.8246792031862e-07
  21    0.0007899663866707
  22    -4.2497571821698e-07
  23    1.3620541592087e-07
  24    8.899339211578e-05
  25    1.3986330430007e-08
  26     4.62895584046e-08
  27    -0.00015410795215456
  28    -3.7841683307562e-08
  29    0.00047775886240459
  30      0.00126103492264
  31    8.925969062399e-05
  32    -1.2606066193381e-06
  33    0.00036902451693463
  34    0.00047805459347369
  35     0.001261161984539
  36    8.9249814543037e-05
  37    -0.00031896540301848
  38    -0.00018555421143312
  39    0.00047670962675275
  40     0.001260564227532
  41    8.929552755795e-05
  42    0.00032024159575379
  43    -0.00018347493481156
  44    -9.9394156735449e-05
  45    0.00011008445407721
  46    4.7039918302672e-05
  47    -9.2616413101987e-06
  48    -1.6155034015685e-05
  49    -9.9309075286657e-05
  50    0.00011012718557065
  51    4.7040822021202e-05
  52    -9.3564644892432e-06
  53    1.6103323721651e-05
  54    -9.9512802337443e-05
  55    0.00010992918891896
  56    4.7034695729761e-05
  57    1.8624285707869e-05
  58    5.1715793568638e-08
 Sym= A
 Ene=               2
 Spin= Alpha
 Occup=    1.00000
   1    -0.0024375879556855
   2    -0.020545413042284
   3    -0.014749003171581
   4    -0.025102785527426
   5    0.0014225206912031
   6    3.5613919503581e-06
   7    -0.014927303545856
   8    -0.0057375304054018
   9    0.0069440435599283
  10    -0.0046367622232054
  11    -0.0081232086248768
  12    -0.0015250216571457
  13    0.0024579571734998
  14     0.014427592576206
  15    -0.013381943642298
  16      0.18309434810694
  17      0.10996018481331
  18      0.12434548748062
  19      0.30007673540652
  20     -0.17224256509683
  21     0.060940695013852
  22       0.1426182829832
  23    -0.082187995402835
  24    -0.0044544430532479
  25    -0.0069349742951821
  26    -0.015467223885179
  27    -0.011082480744441
  28       0.0121201921119
  29    -0.019964635348941
  30    -0.037121142253778
  31    0.0025602970370906
  32    0.0092313227716822
  33    -0.0078955345615598
  34    -0.020230618474326
  35     -0.03760735931899
  36    0.0025403556364411
  37     0.011288198146649
  38    -0.0040896815170299
  39      0.43103507729018
  40      0.16151805759363
  41    -0.012830960419297
  42    -0.025840987577582
  43      0.01506428387501
  44    -0.0044277493646644
  45    -0.0036313030688738
  46    -0.0019054540032459
  47    -0.00064563953383698
  48    2.8932608722698e-05
  49     -0.01863946133309
  50    -0.021343566698748
  51    -0.0016847690135007
  52    -0.00060174264760027
  53    0.00065019684215097
  54     0.022820227067995
  55     0.040520258031848
  56    -0.00042482160623698
  57    -0.0011698131110808
  58    0.0002093887360807
 Sym= A
 Ene=               3
 Spin= Alpha
 Occup=    1.00000
   1    -0.013383641526367
   2      0.18309335237009
   3       0.1099593324068
   4     -0.12434942086459
   5      0.22306299464117
   6      0.26449172435336
   7     -0.06094255904769
   8       0.1059043269325
   9      0.12601179996269
  10    0.0060598289407263
  11    -0.010662190734556
  12     0.017890096186502
  13    -0.0050123837347956
  14    -0.0090171405612662
  15    -0.0024370893342954
  16    -0.020545869873596
  17    -0.014749557648064
  18     0.025106976965128
  19    0.0013369663098259
  20    0.00048488857467538
  21     0.014929291060314
  22    -0.0030167747375828
  23    -0.0084868667257285
  24    -0.0032230596403146
  25    -0.012567990343959
  26    0.0029594259745176
  27    0.0032738027150319
  28    -0.010778932876007
  29     -0.01863715624994
  30    -0.021342870720417
  31    0.0016848044382369
  32    -0.00034309513078585
  33    -0.0008169831266569
  34     0.022821141475345
  35     0.040520505749424
  36    0.00042488794947508
  37    -0.001027579582687
  38    -0.00059676410396086
  39     -0.00442750408188
  40    -0.0036305625568105
  41    0.0019055528093815
  42    -0.00059679563563058
  43    -0.00024798618082301
  44      0.43103512777655
  45      0.16151818499962
  46     0.012830859524459
  47    -0.019130496878889
  48    -0.022993805718586
  49    -0.019969164733481
  50     -0.03712286344744
  51    -0.0025605562539851
  52    0.0059741175294803
  53     0.010576425264331
  54    -0.020223690982164
  55    -0.037604273403766
  56    -0.002540225594353
  57    0.0092090639753901
  58    0.0077038661336312
 Sym= A
 Ene=               4
 Spin= Alpha
 Occup=    1.00000
   1    -0.0024373865993061
   2    -0.020546420333727
   3    -0.014749980595998
   4    -0.025108186823112
   5    -0.00071774644084245
   6    0.0012299642074542
   7    -0.014929859755286
   8    -0.003146531585936
   9    -0.0084409448551999
  10    0.00012694288360369
  11     0.016556220168821
  12    -0.0016508208189228
  13    0.0052078194615787
  14    -0.0001788097151599
  15    -0.013384234448599
  16      0.18309301773681
  17      0.10995904572816
  18      0.12435073648903
  19    -0.00087311600225003
  20      0.34599426229344
  21     0.060943176291261
  22    -0.00013272728652431
  23      0.16460456594172
  24     0.019355637495418
  25     0.013963844493842
  26    -0.00040604075328994
  27    0.0026638322310199
  28    -5.4116645201236e-05
  29      0.43103521860534
  30      0.16151828921092
  31    -0.012830822793095
  32    -0.00012558942772088
  33    -0.029911128802096
  34    -0.019962401000467
  35    -0.037120196081755
  36    0.0025603571072779
  37    0.0022222159500895
  38     0.011942393612471
  39    -0.020229739067485
  40    -0.037606564804458
  41    0.0025404618228674
  42    -0.0021023980355894
  43     0.011820692623574
  44    -0.018640093192484
  45      -0.0213435923428
  46    -0.0016849299882505
  47    -0.00026227413056692
  48    -0.00084617234679913
  49     0.022820615261242
  50     0.040520499439557
  51    -0.00042494950192987
  52    0.0004034567721027
  53    -0.001117755806105
  54    -0.0044236513377314
  55    -0.0036294295039914
  56    -0.0019054521709173
  57    0.00029800331138945
  58    -0.00057367036668601
 Sym= A
 Ene=               5
 Spin= Alpha
 Occup=    1.00000
   1    -0.013383240592765
   2      0.18309208577056
   3      0.10995854433877
   4     -0.12434896046528
   5     -0.34058913060023
   6     0.060932218549329
   7    -0.060942318773058
   8     -0.16208212137843
   9     0.028710000919239
  10    -0.010919492225745
  11    -0.0024781771320182
  12    -0.006570635022547
  13    -0.014815394164657
  14     0.013742452612009
  15    -0.002436972135524
  16     -0.02054632962227
  17    -0.014749848133105
  18     0.025106910274647
  19    -0.0010861503847712
  20    0.00091110498437402
  21       0.0149292329126
  22    0.0088593281121324
  23    0.0016287957728558
  24    -0.0039432636086722
  25    -0.0030510021950913
  26    -0.0024795316918858
  27    0.0028579438189879
  28     0.016273809492122
  29    -0.0044314940798799
  30    -0.0036322618735013
  31    0.0019056877860442
  32    0.00051323188472892
  33    -0.00039263052297621
  34    -0.018637311617202
  35    -0.021342959344295
  36    0.0016848063859405
  37    0.00087913067764928
  38    0.00011122046126586
  39     0.022824513591545
  40     0.040522121135559
  41    0.00042476978789896
  42    0.0010304442342054
  43    -0.00059152643122729
  44    -0.019970511518427
  45    -0.037123159086019
  46    -0.0025606032460211
  47    -0.012146449828249
  48    -0.00011435399871552
  49    -0.020225023720434
  50    -0.037605028537956
  51    -0.0025402653846047
  52    -0.011276278684112
  53    0.0041232546659033
  54       0.4310354824785
  55      0.16151878132064
  56     0.012830880835723
  57      0.02947840686119
  58    -0.0050705878286384
 Sym= A
 Ene=               6
 Spin= Alpha
 Occup=    1.00000
   1    -0.0024370269440438
   2    -0.020545890935436
   3    -0.014749542401672
   4    -0.025106452702552
   5    -0.00070600209156386
   6    -0.0012320236943046
   7    -0.014929019809682
   8    0.0088835194076192
   9    0.0014976778180676
  10    -0.0021604708930488
  11    -0.008433200734738
  12    0.0031758955366047
  13    0.0038872784551877
  14    -0.014248770720665
  15    -0.013384809408766
  16      0.18309208504167
  17      0.10995860314757
  18      0.12434829191002
  19     -0.29920442512421
  20     -0.17375435872988
  21     0.060942005199003
  22     -0.14248589675056
  23    -0.082417865467708
  24    -0.0038452978093993
  25    -0.0070290508696301
  26     0.015873306905499
  27     -0.01073103846957
  28    -0.012066049505834
  29    -0.020232273331999
  30    -0.037607870566223
  31    0.0025404934679072
  32    -0.0091858586841974
  33    -0.0077309124901286
  34      0.43103550271959
  35      0.16151878285893
  36    -0.012830891230553
  37     0.025966533728654
  38     0.014846748581309
  39    -0.019963924822974
  40    -0.037120591919099
  41    0.0025603601346357
  42    -0.011453415277203
  43    -0.0040468265783531
  44     0.022823600244972
  45     0.040521849992304
  46    -0.00042479748762052
  47    0.00076613214524376
  48    0.00090823676286084
  49    -0.0044276507769627
  50    -0.0036313376818796
  51    -0.001905540224775
  52    0.00034793484851994
  53    0.00054474704154103
  54    -0.018640053333382
  55    -0.021343729536978
  56    -0.0016848765768296
  57    0.0008639668671887
  58    0.00019609031121222
 Sym= A
 Ene=               7
 Spin= Alpha
 Occup=    1.00000
   1    -0.013383891187613
   2      0.18309213058188
   3      0.10995854975039
   4     -0.12434946182685
   5      0.11752461051773
   6     -0.32542508890186
   7     -0.06094257693966
   8       0.0561770367415
   9     -0.15472228867007
  10     0.015915754783499
  11     0.013140333848718
  12    -0.011319560039213
  13    0.00067794740468892
  14    -0.0047251635832814
  15    -0.0024372755113062
  16    -0.020545277013586
  17     -0.01474923133413
  18     0.025107901954817
  19    -0.00024903129167506
  20    -0.0013976830332567
  21     0.014929719104666
  22    -0.005841675056556
  23    0.0068573080959432
  24    0.00049622731723858
  25     0.015618978608109
  26    -0.00048000321150663
  27    0.0054210222053976
  28    -0.0054947302616576
  29     0.022824067856709
  30     0.040521761987121
  31    0.00042480443634364
  32    -3.0375054903413e-06
  33     0.001188121767984
  34    -0.0044277666402194
  35    -0.003630854672553
  36    0.0019055783671033
  37    8.3621280910516e-05
  38    0.00064091417699916
  39    -0.018638065410255
  40    -0.021343381785538
  41    0.0016848496774203
  42    -0.00053593927363995
  43    0.00070567054529243
  44    -0.020225306106198
  45    -0.037604905855206
  46    -0.0025402890193384
  47    0.0020672939171289
  48    -0.011827138106193
  49      0.43103543570881
  50      0.16151871308256
  51     0.012830859554645
  52    -0.010347976612053
  53     0.028064346427503
  54    -0.019969586522333
  55    -0.037122941140165
  56    -0.0025605846917974
  57     0.006172331666675
  58     -0.01046197627486
 Sym= A
 Ene=               8
 Spin= Alpha
 Occup=    1.00000
   1      -0.0109303179297
   2      0.19891667883012
   3      0.14944172514793
   4      0.36543386559974
   5    -1.7879110802485e-07
   6    -3.9423938335728e-07
   7      0.16965410889021
   8    -4.1959695503396e-08
   9    -2.7588593695918e-07
  10    -0.015975032813287
  11    1.4009489111074e-07
  12    -1.5525782105625e-08
  13     0.027669640011001
  14    -1.1208100059889e-07
  15    -0.010930263617307
  16      0.19891497052326
  17      0.14944067951994
  18     -0.36543469805641
  19    -2.4613368712851e-06
  20    2.6110691540158e-06
  21     -0.16965449491928
  22    -1.1677913648788e-06
  23    1.2559358118012e-06
  24    -0.015974990110184
  25    1.2429062348606e-07
  26    1.2215229504229e-07
  27     0.027669779123411
  28    -9.1386009489494e-08
  29    -0.022187232981165
  30    -0.037355729069675
  31    -0.0092051409105711
  32    -2.2286679587437e-06
  33    -0.0013855229527184
  34    -0.022188849533077
  35    -0.037356494337032
  36    -0.0092050854141747
  37    0.0012008580292435
  38    0.00069095379437705
  39    -0.022192525055294
  40     -0.03735809136415
  41    -0.0092049611601304
  42    -0.0011985841049953
  43    0.00069452530932703
  44    -0.022188828372001
  45    -0.037356749851766
  46    0.0092050865997804
  47    -0.00088894024527947
  48    -0.0010627621639648
  49    -0.022187933830875
  50    -0.037356110459428
  51    0.0092051107989552
  52    -0.00047591304555638
  53    0.0013012463188428
  54    -0.022188564907899
  55    -0.037356856742131
  56    0.0092050885895994
  57    0.0013648775085568
  58    -0.00023849315389699
 Sym= A
 Ene=               9
 Spin= Alpha
 Occup=    0.00000
   1      -1.0586500237143
   2      -2.0752016647897
   3       6.8172161299834
   4    -0.018904645595866
   5    -0.032443791006493
   6     0.027382875590592
   7       1.0128799109613
   8     0.038588149570717
   9    -0.068171265142062
  10    -0.097508953335952
  11    -0.011400816449829
  12    -0.0049165012155645
  13     0.071434410487793
  14     0.025104664994353
  15      0.11055456449476
  16      0.11946881181473
  17      -2.6310301031702
  18      0.27590177027011
  19    -0.0043537209581159
  20    0.0045110547994598
  21       1.5426104782096
  22    -0.023381817349738
  23     0.023359304476336
  24     0.061340106925811
  25    -0.0042737962223119
  26    0.0017493981229187
  27     -0.09555779194732
  28     0.005565092843662
  29      0.12344843250403
  30    -0.091758039178791
  31    -0.053795409230975
  32    0.0042879247302954
  33     0.011944420970581
  34      0.12843502137508
  35    -0.095500016408444
  36    -0.052460157790527
  37    -0.010166387471294
  38    -0.0047871142032521
  39      0.13714299016489
  40    -0.081514949022847
  41    -0.054733852786621
  42    0.0083767592016227
  43    -0.0079646015048696
  44     -0.59336099390204
  45     -0.76663146063126
  46     -0.05066463188384
  47     0.023524137534717
  48     0.049048290815857
  49     -0.60008997770722
  50     -0.81743422701476
  51    -0.050016643969624
  52    0.0093694181075396
  53    -0.044664047227499
  54      -0.6284234750908
  55      -0.7616513173087
  56    -0.058099187553987
  57    -0.070031816338103
  58     0.019427908698127
 Sym= A
 Ene=              10
 Spin= Alpha
 Occup=    0.00000
   1      0.10294409387319
   2      0.12756013819169
   3      -1.9328630939695
   4     -0.18115852349344
   5      0.01103232610148
   6    0.0046297427802343
   7      -1.0749784480459
   8      0.03871299745304
   9     0.011596001079629
  10     0.035191634942277
  11    0.0041937675734512
  12    0.0089905749239786
  13    -0.062268862645594
  14     0.016680483553353
  15      -1.0084292239171
  16      -1.9817324835767
  17       6.4064177284544
  18     -0.12550422755022
  19     0.062261958232508
  20     0.022252399461421
  21     -0.08450342553066
  22     -0.04387034424046
  23    -0.019515568549359
  24     0.044642576790699
  25     0.022463179867369
  26    -0.083796964941078
  27    -0.012803976440775
  28     0.079680052069203
  29     -0.67458452664113
  30     -0.92444284443718
  31     0.018985338371618
  32     0.012921358651347
  33     0.095640541664066
  34     -0.59678699238754
  35     -0.94545217423612
  36    0.0082736941653174
  37    -0.041222774616501
  38    -0.025529592184195
  39     -0.69612055882131
  40     -0.92489085525522
  41     0.020223034798508
  42      0.10015644015782
  43    -0.043991882126161
  44      0.10208045794082
  45     -0.01658692591347
  46     0.045563817553696
  47    -0.0021241793645042
  48    0.0058939060332233
  49      0.11397630600021
  50    -0.012896241091674
  51     0.048728014025611
  52    0.0019317517855518
  53    -0.0018406252224732
  54      0.11890707816642
  55    0.0024694909485303
  56     0.052221900597276
  57    -0.0054019616974187
  58    -0.0016656052765391
 Sym= A
 Ene=              11
 Spin= Alpha
 Occup=    0.00000
   1    -0.016745217517506
   2    -0.032391573169725
   3      0.11976094532847
   4    -0.016937457036302
   5     -0.05095160574001
   6       -0.399876224597
   7     0.083043173580478
   8    -0.021986371393701
   9       2.9305818288953
  10      -0.2673451268491
  11     -0.74051105720161
  12      0.28202573960549
  13     -0.16049723936188
  14     0.013302177919108
  15    0.0036366266260258
  16    0.0051997843679924
  17    -0.084024765443712
  18    0.0049665502616074
  19     0.009399493664743
  20    -0.016630886760242
  21     0.053430872253008
  22       0.1163810792754
  23     -0.69376471911342
  24    -0.0027018050871402
  25     -0.03578981647637
  26    -0.017532728491464
  27    -0.0026810967086128
  28      0.01080668115738
  29      0.12405165758595
  30     0.064596525776787
  31      0.06994126885889
  32    0.0012608579659415
  33    -0.019695745306765
  34    -0.030155936400339
  35      0.06611519481373
  36    -0.053193910903965
  37    -0.030150598966411
  38     0.055160351005131
  39    -0.084268900856872
  40     -0.15320376351064
  41    -0.020438851067432
  42     0.052351840582258
  43     0.043765976028527
  44     -0.74092262904217
  45      -1.1652236973909
  46    -0.036758832483251
  47      0.20651564946075
  48     0.026879904261757
  49      0.96659240870788
  50       1.4412506097172
  51     0.050135109103183
  52     -0.17449449585762
  53      0.16967543753889
  54     -0.24867537927628
  55     -0.27398907712365
  56    -0.032295932634058
  57     -0.10621122431403
  58     -0.23198940934388
 Sym= A
 Ene=              12
 Spin= Alpha
 Occup=    0.00000
   1     0.011228065948109
   2     0.021981319488071
   3    -0.077676171414391
   4    0.0056895699676663
   5     -0.40943302507506
   6     0.052937719556979
   7    -0.0047805307049525
   8        2.961606742712
   9    0.0035475410194724
  10      0.25654875989188
  11    -0.033645401506666
  12       0.3015895595098
  13      0.17087663094086
  14     -0.70986616175613
  15    -0.0030872488197554
  16    -0.0062866701297513
  17     0.022618048270366
  18    0.0039764049818882
  19    -0.021836052152124
  20    -0.006430926910743
  21    -0.012557662907673
  22     -0.71074455280557
  23     -0.10826013603032
  24    -0.014938154723864
  25    -0.016734212816828
  26    0.0052480671518917
  27    -0.012227474689337
  28    -0.027761477377516
  29     0.029356672275497
  30      0.12605882464377
  31    -0.017789197797557
  32     0.074049012582044
  33    -0.015692490509932
  34     -0.12428881300474
  35     -0.12838247586514
  36    -0.050556938765534
  37    -0.0019762278019291
  38    -0.046095189820857
  39     0.090176780418856
  40    0.0045375590088675
  41     0.070715075151344
  42    0.0095294364762029
  43     0.035192733712702
  44     -0.68736974970268
  45     -0.98131904364618
  46     -0.04342856920479
  47    -0.048474775791841
  48      0.24914075263659
  49     -0.27955223871837
  50     -0.51703320477434
  51    -0.006657715835802
  52     -0.19225880950044
  53     -0.12024762213506
  54       1.0012232206137
  55       1.5310055009836
  56      0.06068599135724
  57      0.20496240682643
  58    -0.061036353315067
 Sym= A
 Ene=              13
 Spin= Alpha
 Occup=    0.00000
   1    -0.034197683987763
   2    -0.047833672436169
   3      0.58462380598729
   4     -0.58035442813204
   5     0.016000990020987
   6    -0.0040267595888251
   7          3.3683590951
   8    0.0070261826228557
   9    -0.050701320627617
  10     -0.16599049889495
  11     0.026511882822234
  12    -0.0027918092790046
  13       0.3873291823779
  14    -0.0091603423243385
  15     0.023283508793555
  16    -0.020852992854901
  17      -2.2496955113895
  18      0.28297627464711
  19    0.00040983154111498
  20    -0.0019325298515521
  21       1.5381535536684
  22    0.0003760721275913
  23    0.0071280580813536
  24     0.056337573562568
  25    0.0026743043183238
  26    -0.00030212334767163
  27     -0.10531256185338
  28    -0.00090811886976598
  29     0.051239099090753
  30     -0.29386589830915
  31    -0.013918210088769
  32    -0.0021279000803674
  33     0.028457606408831
  34     0.050951673574085
  35     -0.29464453394131
  36    -0.010827751272655
  37    -0.023161166433234
  38    -0.017275776925104
  39     0.050130049808099
  40     -0.29297580417764
  41     -0.01030294250397
  42     0.024648736907874
  43    -0.013983964370005
  44      0.25771984407375
  45      0.69294724718498
  46     -0.15225522385244
  47    -0.067080520772273
  48    -0.085949177828228
  49       0.2108649429386
  50      0.64625703955169
  51     -0.15592805584891
  52     -0.02436201647179
  53      0.09049605382352
  54      0.27714766144834
  55      0.68605629410125
  56     -0.14366314076296
  57      0.11713461605347
  58    -0.018758099862893
 Sym= A
 Ene=              14
 Spin= Alpha
 Occup=    0.00000
   1    -0.0016575163010113
   2    -4.0614069787716e-05
   3      0.10771128123852
   4     0.012868921128239
   5     -0.02531440555917
   6    0.0083334522023109
   7     0.072355391666328
   8     -0.72045697359291
   9       0.1152132887279
  10    -0.014219043014581
  11    -0.013632258350046
  12     0.014399097782999
  13    -0.002063717867793
  14     0.021235070082653
  15    0.0067147977361934
  16     0.012350860710677
  17    -0.058967056105901
  18     -0.02494674245076
  19     -0.41666924570358
  20    -0.052613401066031
  21       0.1468283804823
  22       2.9763202218245
  23    -0.019139325330776
  24    -0.099365519430176
  25    -0.023663574009981
  26     -0.42579646353311
  27    -0.076832687765082
  28      0.68415790594872
  29     0.060102454830547
  30    -0.016749085869556
  31    -0.021812873463909
  32     -0.23932523753371
  33      -0.0238775895656
  34      0.83677864602204
  35       1.3137722977555
  36    -0.054713954168457
  37     0.094204486859607
  38      0.17135028171465
  39     -0.91831757173881
  40      -1.3703193429194
  41     0.056085778341917
  42      0.10734993937938
  43     -0.22125258932174
  44     0.053001780631642
  45    -0.033808032019686
  46    -0.059727313400077
  47      0.04213229197933
  48    -0.037321825111925
  49      0.06975647619765
  50      0.15960562630265
  51    -0.0067230234586385
  52     0.059291639406633
  53     0.044916239213754
  54     -0.13116492616188
  55    -0.087295823222294
  56     0.064127382211524
  57    -0.016825133525237
  58     0.017805433315064
 Sym= A
 Ene=              15
 Spin= Alpha
 Occup=    0.00000
   1    -0.0001569787317382
   2    0.00037815154492757
   3       0.0179830063595
   4    0.0027860436332315
   5    -0.011027759311786
   6    -0.019071474492417
   7     0.011786270844284
   8      -0.1228757311647
   9     -0.70124778174461
  10    -0.014513508175213
  11     0.032852569044962
  12    -0.016251956527991
  13    -0.0068641421548489
  14     0.010320800905842
  15    0.0023665729513793
  16    0.0045378172293959
  17    -0.016645136437368
  18    -0.0025752529638287
  19     0.030521727037681
  20     -0.39737820341345
  21     0.020685947741606
  22     0.023046394782134
  23       2.9539352948534
  24      0.37326355218088
  25      0.73293545837559
  26    -0.080466581160651
  27      0.21020749820082
  28    0.0035816895928582
  29      -1.0278781959452
  30      -1.5444400518051
  31     0.059224465739587
  32     0.013681907064984
  33      0.22688737899878