[Molden Format]
made by pyscf v[2.0.1]
[Atoms] (AU)
C   1   6     0.00000000000000     0.00000000000000     0.00000000000000
C   2   6     2.89040035821050     0.00000000000000     0.00000000000000
H   3   1     3.65380793584534     0.00000000000000     1.93990930394644
H   4   1     3.65380793584534    -1.68001073825540    -0.96995465197322
H   5   1     3.65380793584534     1.68001073825540    -0.96995465197322
H   6   1    -0.76340757763484     1.48605674244297     1.24694966449241
H   7   1    -0.76340757763484     0.33686171546942    -1.91043772266697
H   8   1    -0.76340757763484    -1.82291845791239     0.66348805817456
[GTO]
1 0
 s    8 1.00
                  6665  0.00069158396281299
                  1000  0.0053257961529341
                   228   0.027060721042034
                 64.71    0.10165684614077
                 21.06     0.2745748236174
                 7.495    0.44829431892377
                 2.797    0.28490261071525
                0.5215   0.015194859206082
 s    8 1.00
                  6665  -0.00029326965268655
                  1000  -0.0023180354739745
                   228  -0.011499786038565
                 64.71  -0.046826727009787
                 21.06   -0.12846616875047
                 7.495   -0.30126627246289
                 2.797   -0.25563070233011
                0.5215      1.093793361012
 s    1 1.00
                0.1596                   1
 p    3 1.00
                 9.439   0.056979251590039
                 2.002    0.31320721150073
                0.5456    0.76037674173753
 p    1 1.00
                0.1517                   1
 d    1 1.00
                  0.55                   1

2 0
 s    8 1.00
                  6665  0.00069158396281299
                  1000  0.0053257961529341
                   228   0.027060721042034
                 64.71    0.10165684614077
                 21.06     0.2745748236174
                 7.495    0.44829431892377
                 2.797    0.28490261071525
                0.5215   0.015194859206082
 s    8 1.00
                  6665  -0.00029326965268655
                  1000  -0.0023180354739745
                   228  -0.011499786038565
                 64.71  -0.046826727009787
                 21.06   -0.12846616875047
                 7.495   -0.30126627246289
                 2.797   -0.25563070233011
                0.5215      1.093793361012
 s    1 1.00
                0.1596                   1
 p    3 1.00
                 9.439   0.056979251590039
                 2.002    0.31320721150073
                0.5456    0.76037674173753
 p    1 1.00
                0.1517                   1
 d    1 1.00
                  0.55                   1

3 0
 s    3 1.00
                 13.01   0.033498726389998
                 1.962    0.23480080117413
                0.4446     0.8136829578829
 s    1 1.00
                 0.122                   1
 p    1 1.00
                 0.727                   1

4 0
 s    3 1.00
                 13.01   0.033498726389998
                 1.962    0.23480080117413
                0.4446     0.8136829578829
 s    1 1.00
                 0.122                   1
 p    1 1.00
                 0.727                   1

5 0
 s    3 1.00
                 13.01   0.033498726389998
                 1.962    0.23480080117413
                0.4446     0.8136829578829
 s    1 1.00
                 0.122                   1
 p    1 1.00
                 0.727                   1

6 0
 s    3 1.00
                 13.01   0.033498726389998
                 1.962    0.23480080117413
                0.4446     0.8136829578829
 s    1 1.00
                 0.122                   1
 p    1 1.00
                 0.727                   1

7 0
 s    3 1.00
                 13.01   0.033498726389998
                 1.962    0.23480080117413
                0.4446     0.8136829578829
 s    1 1.00
                 0.122                   1
 p    1 1.00
                 0.727                   1

8 0
 s    3 1.00
                 13.01   0.033498726389998
                 1.962    0.23480080117413
                0.4446     0.8136829578829
 s    1 1.00
                 0.122                   1
 p    1 1.00
                 0.727                   1

[5d]
[7f]
[9g]

[MO]
 Sym= A
 Ene=               0
 Spin= Alpha
 Occup=    1.00000
   1    -0.00012487274209596
   2    0.0001693538806214
   3    0.0023288347354524
   4    0.00031291761928576
   5    -1.2574493211436e-07
   6    -6.2021612378713e-08
   7    0.0011876656636542
   8    -4.6726742013439e-08
   9    -3.5665198890967e-08
  10    9.7874628378705e-05
  11    9.6107668984143e-09
  12    -1.6715126847877e-09
  13    -0.00016951810762521
  14    -2.4314803413853e-08
  15       1.0022670372402
  16    0.0054677892065069
  17    -0.0088544440683876
  18    0.00021349983830876
  19    -6.0957197491008e-07
  20    1.5053776718299e-07
  21    0.00079204802734539
  22    -2.8654410753019e-07
  23    7.362082878826e-08
  24    8.8910410444291e-05
  25    9.0410428544256e-09
  26    3.0621449481735e-08
  27    -0.00015397993791425
  28    -1.8780063376546e-08
  29    0.00047781034915561
  30    0.0012589104939012
  31    8.8892465038685e-05
  32    -7.4518905925119e-07
  33    0.00036952508473728
  34    0.00047805732411153
  35    0.0012590048234719
  36     8.88840655427e-05
  37    -0.00031964961954089
  38    -0.00018537357035437
  39    0.00047715545565957
  40    0.0012586237936749
  41    8.8914691115258e-05
  42    0.00032040657741077
  43    -0.00018415378416144
  44    -9.6175565898733e-05
  45    0.00011749676300258
  46    4.8283116547384e-05
  47    -1.3223544452951e-05
  48    -1.3563923865861e-05
  49    -9.6032658298169e-05
  50    0.00011754658987465
  51    4.8287174880938e-05
  52    -5.1396025755643e-06
  53    1.8241296412973e-05
  54    -9.604718516043e-05
  55    0.00011747442397959
  56    4.828666747621e-05
  57    1.8370313124728e-05
  58    -4.6770477486258e-06
 Sym= A
 Ene=               1
 Spin= Alpha
 Occup=    1.00000
   1       1.0022670403627
   2     0.005467737551009
   3    -0.0088544820746111
   4    -0.00021358215635686
   5    2.5424063559183e-07
   6    1.5613194540135e-07
   7    -0.00079208594651882
   8    1.180891852334e-07
   9    7.436870903064e-08
  10    8.8905980879111e-05
  11    -5.694768226085e-09
  12    1.4624803718802e-08
  13    -0.00015399132083462
  14    -5.2466322311974e-09
  15    -0.00012483744779592
  16    0.00016929749772652
  17    0.0023287933864889
  18    -0.00031283767079435
  19    1.0644751165556e-07
  20    1.282510200822e-08
  21    -0.0011876287967422
  22    4.5552826408714e-08
  23    1.3735317808071e-09
  24    9.7875547562864e-05
  25    -6.9292464356294e-09
  26    -2.6440800329382e-09
  27    -0.00016952607528724
  28    -7.9689355467875e-09
  29    -9.6086954971656e-05
  30    0.00011750198510386
  31    -4.8283445341352e-05
  32    -1.8880841132977e-06
  33    -1.8855667776569e-05
  34    -9.6150276889846e-05
  35    0.00011750835201185
  36    -4.8281348490517e-05
  37    1.7270082496496e-05
  38    7.7860744905705e-06
  39    -9.6022889263847e-05
  40    0.00011752929761037
  41    -4.8285279578887e-05
  42    -1.5386004659089e-05
  43    1.1068307134451e-05
  44    0.00047792594036667
  45    0.0012589573690664
  46    -8.889081171644e-05
  47    0.00028353601669712
  48    0.00023696465891615
  49    0.0004775800063276
  50    0.0012588119083733
  51    -8.8902482926659e-05
  52    6.3461945817347e-05
  53    -0.00036404727408579
  54    0.00047752182002239
  55    0.0012587932869973
  56    -8.8904513594538e-05
  57    -0.00034700326982861
  58    0.0001270796796301
 Sym= A
 Ene=               2
 Spin= Alpha
 Occup=    1.00000
   1     -0.00245027092783
   2     -0.02054017392253
   3    -0.014557975936872
   4    -0.025109199721779
   5    0.0015511322651922
   6    -0.00041851121520952
   7    -0.014711591310585
   8    -0.0051442219572462
   9    0.0050449567729717
  10    -0.0044017013360329
  11    -0.0082215134429332
  12    -0.002473969204568
  13      0.00257106761508
  14     0.014446355915331
  15     -0.01335234889096
  16      0.18315723149504
  17      0.10970241560299
  18      0.12439011478051
  19      0.29980105083728
  20     -0.17250868190651
  21     0.061112376513206
  22      0.14208817787895
  23     -0.08194290541063
  24    -0.004404060580757
  25    -0.006985882278086
  26    -0.015678069007125
  27    -0.011014017930571
  28     0.012161970071096
  29    -0.020009221697329
  30    -0.037316641810931
  31    0.0025572567684502
  32    0.0092129293006163
  33    -0.0078850791906503
  34    -0.020164349505265
  35    -0.037597572452934
  36    0.0025458020522149
  37     0.011340224527383
  38    -0.004060995331259
  39       0.4310535406304
  40      0.16158764809729
  41     -0.01286598828913
  42    -0.025835940150743
  43     0.014999895010004
  44    -0.0085170028724015
  45    -0.0089480512722948
  46    -0.0019569528067409
  47    -0.0007721188007703
  48    4.8513746540693e-05
  49    -0.015716454729146
  50     -0.01787096049491
  51    -0.0018367987223359
  52    -0.00056426036221767
  53    0.00068668321829825
  54     0.023852213919076
  55     0.042577174969323
  56    -0.00033596355612911
  57    -0.0011966345983292
  58    0.00043539684583003
 Sym= A
 Ene=               3
 Spin= Alpha
 Occup=    1.00000
   1    -0.013354089980218
   2      0.18315688475143
   3      0.10970204834954
   4     -0.12439288106009
   5      0.26528394476364
   6      0.22195442699744
   7    -0.061113691728133
   8      0.12569717483791
   9      0.10537445834483
  10    0.00072627155053125
  11    -0.0089918387604834
  12     0.017920421914992
  13    -0.008052236947663
  14    -0.010763913480008
  15    -0.0024498887441899
  16    -0.020540384964818
  17    -0.014558291039932
  18      0.02511202777267
  19    0.0014535200905853
  20    0.0006833200162881
  21     0.014712939079316
  22    -0.0041904938577651
  23    -0.0058608525545904
  24    -0.0035368569463123
  25    -0.010605441481349
  26    0.0031888888813933
  27    0.0030701598476052
  28    -0.012798970334434
  29    -0.015714545450782
  30    -0.017870635628733
  31    0.0018368138359397
  32    -0.00043647888786216
  33    -0.00077441038301109
  34     0.023853115356171
  35     0.042577443959839
  36    0.00033599984060667
  37    -0.0011027950658232
  38    -0.0006364831110909
  39    -0.0085173270328804
  40    -0.0089474751448562
  41    0.0019570330430905
  42    -0.00075191388424789
  43    -0.00018185901955028
  44      0.43105356093744
  45      0.16158770374468
  46     0.012865918684706
  47    -0.022838936369617
  48    -0.019258180311869
  49    -0.020015004359012
  50    -0.037319001358499
  51    -0.002557525493661
  52    0.0077036214322509
  53    0.0093648037357034
  54    -0.020156343282623
  55    -0.037594149167746
  56    -0.0025456017479935
  57     0.010463205669115
  58    0.0059684742737495
 Sym= A
 Ene=               4
 Spin= Alpha
 Occup=    1.00000
   1    -0.0024501214989499
   2    -0.020541243040604
   3    -0.014559014048961
   4    -0.025114953070601
   5    -0.00041668452103321
   6    0.0015529802389321
   7    -0.014714311002867
   8    -0.0017986131296655
   9    -0.0069772949479697
  10    0.00073584486868366
  11     0.016621598791509
  12    -0.00095112792746248
  13    0.0055367338280085
  14    -0.00010303665560353
  15    -0.013353774468801
  16      0.18315572285495
  17       0.1097011323538
  18      0.12439565718672
  19    -0.0005045278756033
  20      0.34588858723338
  21      0.06111499485358
  22    -7.9798858379365e-05
  23      0.16402292009994
  24      0.01946301648351
  25     0.014025451577339
  26    -0.00023320716062644
  27    0.0027651766794651
  28    -3.0898644007072e-05
  29      0.43105365967673
  30      0.16158786203922
  31    -0.012865842596566
  32    -7.2341351685177e-05
  33    -0.029874563148141
  34    -0.020007190956801
  35    -0.037315754060469
  36    0.0025573343801351
  37    0.0022223490524017
  38     0.011921226090396
  39    -0.020163224441694
  40    -0.037596606940265
  41    0.0025459079427514
  42    -0.0021532566726946
  43     0.011851412923779
  44     -0.01571713169574
  45    -0.017871014907822
  46    -0.0018369697232265
  47    -0.00031260763758145
  48    -0.00083194397284471
  49     0.023852632708021
  50     0.042577420302184
  51    -0.00033609871529193
  52    0.00022113830619377
  53    -0.0012539632087787
  54    -0.0085126390930946
  55    -0.0089460194538508
  56    -0.0019569513297672
  57    0.00034428135299476
  58    -0.00069304174384685
 Sym= A
 Ene=               5
 Spin= Alpha
 Occup=    1.00000
   1    -0.013353058502831
   2      0.18315547413945
   3      0.10970111226872
   4     -0.12439321482233
   5     -0.32486107819034
   6      0.11876533389892
   7    -0.061113821643528
   8     -0.15410600786823
   9       0.0561697819746
  10    -0.0083010458513678
  11    -0.0048261116675512
  12    -0.011902279273082
  13    -0.013264238222625
  14     0.013169244218683
  15    -0.0024502459027421
  16    -0.020541399649978
  17    -0.014558965936011
  18      0.02511255731128
  19    -0.0013167206266254
  20    0.00091271935125603
  21     0.014713158130055
  22    0.0071717721026186
  23    -0.00070073204997266
  24    -0.0039438456786353
  25    -0.0057816881816645
  26    -0.0029177709530901
  27    0.0028350807377109
  28      0.01558418621214
  29    -0.0085214868208142
  30    -0.0089491705103248
  31    0.0019571913924368
  32    0.00053350920803023
  33    -0.00056001031063708
  34    -0.015714383630332
  35    -0.017870493373083
  36      0.00183682383077
  37    0.0008889539747639
  38    9.0666896024022e-06
  39     0.023856120282635
  40       0.0425789714169
  41    0.00033591194016576
  42    0.0011024706487093
  43    -0.00063682930533265
  44    -0.020016162396101
  45    -0.037319211697819
  46    -0.0025575823050612
  47    -0.011961894897242
  48    0.0019892241287175
  49    -0.020157340859381
  50    -0.037594742133138
  51    -0.002545652266733
  52    -0.010400472560491
  53    0.0060770930689779
  54      0.43105395148336
  55      0.16158834571254
  56     0.012865921472216
  57     0.028097486133266
  58     -0.01014999598392
 Sym= A
 Ene=               6
 Spin= Alpha
 Occup=    1.00000
   1    -0.0024498856130281
   2    -0.020540953456173
   3    -0.014558695463678
   4    -0.025112681833242
   5    -0.0011356170245726
   6    -0.001133045272335
   7    -0.014713220837759
   8    0.0069422998494661
   9    0.0019330644199424
  10    -0.0029750733253242
  11    -0.0084002588858227
  12    0.0034250906276296
  13    0.0033943890155493
  14    -0.014343290111669
  15    -0.013354290044295
  16      0.18315527405082
  17      0.10970101187601
  18      0.12439302768505
  19     -0.29929691799292
  20     -0.17338229525119
  21     0.061113735879321
  22     -0.14200853467033
  23    -0.082081174363728
  24    -0.0040541787265142
  25    -0.0070397357637583
  26     0.015911290644202
  27     -0.01081227855488
  28    -0.012131031312855
  29    -0.020165555812755
  30    -0.037597891948817
  31    0.0025459262926066
  32    -0.0091870258438475
  33    -0.0077903419719268
  34      0.43105392672874
  35      0.16158830051084
  36    -0.012865918493116
  37     0.025908254526038
  38     0.014874581919118
  39    -0.020008381320251
  40    -0.037316116709244
  41    0.0025573145350248
  42    -0.011435178024384
  43    -0.0040361063876612
  44     0.023855163580649
  45     0.042578598221174
  46    -0.00033595078917114
  47    0.00097527334049055
  48    0.00081849867544129
  49    -0.0085168649920578
  50    -0.0089480045699647
  51    -0.0019570360594298
  52    0.00042814314351904
  53    0.00064446599042796
  54    -0.015717279728561
  55    -0.017871158587608
  56    -0.0018369129865798
  57    0.00087680737464887
  58    0.00014538472335138
 Sym= A
 Ene=               7
 Spin= Alpha
 Occup=    1.00000
   1     -0.01335322187335
   2      0.18315537821482
   3      0.10970103253396
   4     -0.12439356152024
   5     0.059575782425679
   6     -0.34072069455294
   7    -0.061114003087721
   8     0.028408173299903
   9     -0.16154462986803
  10     0.018579686366648
  11     0.013817885484957
  12    -0.0060182361317657
  13    0.0022553742661327
  14    -0.0024052115782433
  15    -0.0024502213556875
  16    -0.020540345611644
  17    -0.014558347751878
  18     0.025113463982831
  19    -0.00013548488372047
  20    -0.0015981797939496
  21     0.014713601719719
  22    -0.0029806298530376
  23    0.0065605959641411
  24    0.00083982876438164
  25     0.016387087185044
  26    -0.00027120182255005
  27      0.00559687437864
  28    -0.0027850966738209
  29     0.023855630743663
  30     0.042578591619943
  31    0.00033594488350565
  32    1.7216591955983e-07
  33    0.0012731532255595
  34    -0.0085175167232205
  35    -0.0089476481234409
  36    0.0019570715534359
  37    0.00021844281369582
  38    0.0007421738747814
  39    -0.015715425449855
  40    -0.017871053235405
  41    0.0018368743975249
  42    -0.00045237262654993
  43    0.00076524256131696
  44    -0.020157682487319
  45    -0.037594583884236
  46    -0.0025456741996984
  47    -6.266175815622e-05
  48    -0.012045582775418
  49      0.43105388381243
  50      0.16158825855054
  51     0.012865903291134
  52    -0.0052586129325899
  53      0.02940813884031
  54    -0.020015521098866
  55    -0.037319100798495
  56    -0.0025575728220504
  57    0.0042582770756772
  58    -0.011353942371104
 Sym= A
 Ene=               8
 Spin= Alpha
 Occup=    1.00000
   1     0.010940637045933
   2     -0.19887271551053
   3      -0.1495179797306
   4     -0.36546893097573
   5    7.4304550409518e-07
   6    7.3209025683287e-07
   7      -0.1696459314354
   8    3.1122654725992e-07
   9    4.2352053133445e-07
  10     0.015949364993061
  11    -1.6890875732069e-07
  12    3.6671985026989e-08
  13    -0.027625211948477
  14    8.8154998181757e-08
  15      0.01094085343442
  16     -0.19887228647593
  17     -0.14951772145017
  18      0.36546913959387
  19    2.4401544315271e-06
  20    -2.8981699963066e-06
  21      0.16964602935082
  22    1.1430156556232e-06
  23    -1.3953978313906e-06
  24     0.015949282456287
  25    -1.5304492410997e-07
  26    -1.1717078045082e-07
  27    -0.027625288122328
  28    6.3681426242975e-08
  29     0.022180266831881
  30     0.037383542710693
  31    0.0091968030140048
  32    1.4151549245895e-06
  33    0.0013776159649559
  34     0.022182344611793
  35     0.037384591251457
  36    0.0091967312401939
  37    -0.0011935873182694
  38    -0.00068770164841838
  39     0.022185919388638
  40     0.037386067056017
  41    0.0091966107920114
  42    0.0011921229027677
  43    -0.00068986849999208
  44     0.022183469190704
  45     0.037385065930773
  46    -0.0091966952654696
  47    0.0010543445420813
  48    0.00088646301522425
  49     0.022181812622023
  50     0.037384102202281
  51    -0.0091967495704595
  52    0.00024055060323349
  53    -0.0013563764061367
  54     0.022182426950066
  55     0.037384883143849
  56    -0.0091967250868996
  57    -0.001294929633139
  58    0.00046992182743515
 Sym= A
 Ene=               9
 Spin= Alpha
 Occup=    0.00000
   1      -1.0559805637738
   2      -2.0697113544164
   3       6.8087192909397
   4    -0.035089811283671
   5    -0.045592080813929
   6     0.036293467305314
   7       1.0740812285925
   8     0.033564993646938
   9     -0.01731557786081
  10     -0.12329419908345
  11    -0.043227452160329
  12    -0.031865330755468
  13     0.045555252625946
  14     0.044579310256579
  15      0.11094536459803
  16      0.12114026541303
  17      -2.6465577884047
  18      0.27552621716429
  19    -0.0067121938536343
  20    0.0068450927479772
  21       1.5695305852632
  22    -0.025162008321986
  23     0.018242999330337
  24     0.064206511452557
  25    -0.007961361607604
  26    0.0044911691913321
  27    -0.094692663031306
  28    0.0089503811513172
  29      0.12031505647286
  30     -0.10335090302289
  31    -0.050015697153242
  32    0.0027337212269904
  33     0.012998345298616
  34      0.12484272879028
  35     -0.10394166356836
  36    -0.051733462969814
  37    -0.011304362926788
  38    -0.0051117688164281
  39      0.13607864893594
  40    -0.093105054926431
  41    -0.055308334267891
  42     0.010890040546521
  43    -0.0069057624030358
  44     -0.59744867388714
  45     -0.77203616607238
  46    -0.056042264068593
  47     0.028649692254442
  48     0.043822744195324
  49     -0.56041287085862
  50     -0.77075034064552
  51    -0.051190358291332
  52    -0.0057202518487698
  53    -0.031677850924835
  54     -0.65528054796062
  55     -0.75641834513289
  56    -0.067437587133458
  57    -0.078057295046133
  58     0.032578717629867
 Sym= A
 Ene=              10
 Spin= Alpha
 Occup=    0.00000
   1      0.10414257040442
   2       0.1346865614084
   3      -1.8600674519189
   4     -0.16346056026041
   5    0.0084325162927196
   6    -0.00025931167400047
   7      -1.0432065914646
   8     0.017154214466788
   9    -0.0044277811599818
  10      0.03441147255176
  11    -9.7737670670959e-05
  12    0.0046667059012606
  13     -0.05361827506161
  14     0.012573145035377
  15      -1.0022164847772
  16      -1.9699569874704
  17       6.3683246862893
  18     -0.12293775869006
  19     0.032211584984298
  20      -0.0117299722236
  21    -0.024604137865647
  22    0.0057360021449484
  23     0.009936384344026
  24     0.018752806788525
  25    -0.001192672567153
  26     -0.04494274512411
  27    -0.080570330097185
  28     0.066389643246706
  29     -0.65571033164623
  30     -0.94295781019144
  31     0.015135866260768
  32    0.0019059448529898
  33     0.082398092147313
  34     -0.63083692059237
  35     -0.92922016952206
  36     0.019153456003521
  37    -0.056658454984496
  38    -0.039802785886037
  39     -0.70844011379217
  40     -0.94647918658488
  41     0.022896141511798
  42     0.093737965934853
  43    -0.058663544945609
  44       0.1036527545445
  45    -0.013475876047059
  46     0.044296326179049
  47    0.00092710804198448
  48    0.0034600879905589
  49      0.10496532864782
  50    -0.011377321948571
  51     0.046506764660385
  52    0.0026795181440195
  53    -0.0032656757893702
  54      0.11204964578866
  55    -0.0041730095098169
  56     0.050413880058361
  57    -0.0047327157850314
  58    0.00043104837411918
 Sym= A
 Ene=              11
 Spin= Alpha
 Occup=    0.00000
   1    0.0038335414356892
   2    0.0074904685730963
   3    -0.031776225926459
   4    0.0072031688425518
   5     -0.39397962649982
   6    0.0042183733775946
   7    0.0066826175917394
   8       2.9575337382565
   9     0.025901156515993
  10      0.17615063289148
  11    -0.0064806032749765
  12      0.41168337429681
  13      0.13457595959248
  14     -0.71899743337588
  15    -0.0029960119113119
  16    -0.007309202605303
  17    0.00063638562594073
  18    0.0086214660177969
  19    -0.017475725286359
  20    -0.0065170453882444
  21    0.00055185375445248
  22     -0.65172154559167
  23    -0.075016817200538
  24    -0.010528943551237
  25    -0.0074056995083451
  26    -0.0025450099806949
  27    -0.012489618734492
  28    -0.024043527162522
  29     0.021524064429171
  30     0.074094974694377
  31    -0.010875890269636
  32     0.072987612755361
  33    -0.0095700313245735
  34     -0.10524395383102
  35    -0.051479642215515
  36     -0.06282309723422
  37    0.0043836049241986
  38    -0.040569574714522
  39     0.081683238367749
  40    -0.022888636433571
  41     0.075098455774109
  42     0.011870019367434
  43     0.034383282006865
  44     -0.79821028977889
  45      -1.1790604397899
  46    -0.047558392715361
  47     0.038459124788967
  48      0.22771027363274
  49      -0.1583232955222
  50     -0.25210906524839
  51    -0.0077562910593922
  52      -0.2201888720336
  53    -0.073285539667366
  54       0.9841814420786
  55       1.4516352200583
  56     0.067802031092287
  57      0.17535419766049
  58      -0.1488081925209
 Sym= A
 Ene=              12
 Spin= Alpha
 Occup=    0.00000
   1    0.0044716248417455
   2    0.0091385721709596
   3    -0.020970355595422
   4    -0.011822877805186
   5    -0.032361554756357
   6     -0.38743771675772
   7     0.057959846771773
   8    -0.021327109094608
   9       2.9869672406766
  10     -0.43319513191852
  11     -0.67975619035341
  12      0.20363710569676
  13     -0.24557101100089
  14     0.030134514850565
  15    0.00024459498007418
  16    -0.00011067228998561
  17    -0.029239229928417
  18    0.0028802865496269
  19    0.0035838373415558
  20    -0.022605344851141
  21     0.021028488060609
  22     0.065350671616459
  23     -0.66620775694425
  24     0.008142512372517
  25    -0.012112266454901
  26    -0.012961671127653
  27     0.003582178235238
  28      0.01124450853008
  29      0.10702832986238
  30     0.016074396273847
  31     0.078931602776409
  32    0.0013165754996829
  33    -0.010167666275729
  34    -0.036367737341663
  35     0.046643211793071
  36    -0.048241229674125
  37    -0.029975861055656
  38     0.057081803583256
  39    -0.069421843471154
  40    -0.077867714906045
  41    -0.030742002840371
  42     0.045201013593399
  43      0.04990529981734
  44     -0.64148836169498
  45     -0.97556286360075
  46    -0.050693922519797
  47      0.20370327502752
  48    -0.038352032673709
  49       1.0633067484577
  50       1.5501530249056
  51     0.079996607752876
  52    -0.087289399221683
  53      0.22198590730602
  54     -0.40137936762945
  55     -0.52617639522457
  56    -0.038588370034965
  57     -0.16133599805898
  58     -0.16236978732056
 Sym= A
 Ene=              13
 Spin= Alpha
 Occup=    0.00000
   1    -0.018005001597976
   2    -0.015966112641067
   3      0.47574595686276
   4     -0.57369473328412
   5     0.026163139026913
   6    -0.019000062335918
   7       3.3539415894394
   8     -0.01532584342317
   9    -0.037189268831465
  10     -0.16369484346379
  11     0.040374662328427
  12     0.010905355248546
  13      0.40998937309317
  14    -0.027598813138134
  15     0.020431868182765
  16     -0.02654162265406
  17      -2.2189944435001
  18      0.28510678969065
  19    0.0037865441958533
  20    -0.0042214290796593
  21        1.515159710876
  22     0.012734741169093
  23    -0.0017176030830941
  24     0.055516429246835
  25    0.0055366112429761
  26    -0.0020105467961889
  27     -0.10737079626609
  28    -0.0055430072085429
  29     0.053072897065069
  30      -0.2883798546865
  31    -0.014272326873735
  32    -0.0018658380899087
  33     0.028460110352673
  34     0.051510535700783
  35     -0.28929616392236
  36    -0.010901845512081
  37    -0.023975912778741
  38     -0.01616572797707
  39     0.046067331267237
  40     -0.29372359576082
  41    -0.0089581525926563
  42     0.024083453121314
  43    -0.014461258406874
  44      0.27087951701395
  45      0.70622686776094
  46     -0.14657527808732
  47    -0.080109917567509
  48    -0.075503343653277
  49       0.2145843469627
  50      0.66549557342188
  51     -0.15312929654992
  52    -0.0085594361289347
  53     0.088387710630825
  54      0.30074062565736
  55      0.69319031753179
  56     -0.14066284628188
  57      0.12079430311057
  58     -0.04477729611495
 Sym= A
 Ene=              14
 Spin= Alpha
 Occup=    0.00000
   1     0.002939456250094
   2     0.012823618806156
   3      0.10719937643118
   4     0.031342588096323
   5    -0.013160118009069
   6    0.00088970291154598
   7      0.06764929286634
   8     -0.63749388716948
   9     0.068666781244656
  10    -0.011689129885145
  11    -0.013562931998353
  12    0.0064314254853829
  13     0.013451696289591
  14     0.030499606367657
  15     0.026061704604229
  16     0.050945631772403
  17     -0.15564723616218
  18    0.0094525717133318
  19     -0.39510133384354
  20    -0.040910267146601
  21     0.083558047765394
  22       2.9204342947702
  23    -0.070177242037737
  24    -0.059288380831564
  25    -0.058131203402162
  26     -0.42412266502349
  27     -0.11739883386259
  28      0.73839775792805
  29     0.079579982041031
  30     0.042271178590605
  31    -0.0065087088459308
  32      -0.2408442653608
  33    -0.029580279367844
  34      0.84070331627273
  35       1.3007902877362
  36    -0.037977215961621
  37     0.096089171997686
  38      0.18398206032854
  39     -0.93127454495667
  40      -1.3346464221938
  41     0.062628240324864
  42      0.12228308630483
  43     -0.22016703971818
  44      0.06706850959465
  45    -0.028042758341576
  46    -0.066790951445912
  47     0.025909258432295
  48    -0.039928710778872
  49     0.031609709308694
  50     0.077321207305624
  51    -0.007520569034086
  52     0.068028705613447
  53      0.02409914573662
  54     -0.10804392702342
  55    -0.030178084331065
  56     0.072002799264729
  57    -0.0064946199507033
  58     0.027837469409743
 Sym= A
 Ene=              15
 Spin= Alpha
 Occup=    0.00000
   1    -0.0025360515672068
   2    -0.0062440847057375
   3    -0.0015601641720973
   4    -0.0075808937119244
   5    -0.0024832996006385
   6    -0.021968849443794
   7    -0.0019572840485655
   8    -0.074938420275244
   9     -0.66342344564653
  10    -0.0092901238281897
  11     0.013516255639573
  12    -0.0078590491903196
  13    -0.010931427001188
  14     0.014592316944551
  15     0.003488817839714
  16    0.0068413735968949
  17    -0.028020491668696
  18    -0.0053899834005647
  19     0.022413121654071
  20       -0.389461260087
  21    -0.0095622214347932
  22     0.073958458488468
  23       2.9831756076426
  24      0.43965825125189
  25      0.68423614129701
  26    -0.064656820904383
  27      0.28225328203466
  28     0.054396004192966
  29      -1.0520465672481
  30      -1.5468615348355
  31     0.077348850231859
  32    0.0010306074676759