[Molden Format]
made by pyscf v[2.0.1]
[Atoms] (AU)
C   1   6     0.00000000000000     0.00000000000000     0.00000000000000
C   2   6     2.88195139270757     0.00000000000000     0.00000000000000
H   3   1     3.63065534584939     0.00000000000000     1.92469232395612
H   4   1     3.63065534584939    -1.66683244701491    -0.96234616197806
H   5   1     3.63065534584939     1.66683244701491    -0.96234616197806
H   6   1    -0.74870395314182    -1.66683244701490    -0.96234616197806
H   7   1    -0.74870395314182     1.66683244701491    -0.96234616197806
H   8   1    -0.74870395314182     0.00000000000000     1.92469232395612
[GTO]
1 0
 s    8 1.00
                  6665  0.00069158396281299
                  1000  0.0053257961529341
                   228   0.027060721042034
                 64.71    0.10165684614077
                 21.06     0.2745748236174
                 7.495    0.44829431892377
                 2.797    0.28490261071525
                0.5215   0.015194859206082
 s    8 1.00
                  6665  -0.00029326965268655
                  1000  -0.0023180354739745
                   228  -0.011499786038565
                 64.71  -0.046826727009787
                 21.06   -0.12846616875047
                 7.495   -0.30126627246289
                 2.797   -0.25563070233011
                0.5215      1.093793361012
 s    1 1.00
                0.1596                   1
 p    3 1.00
                 9.439   0.056979251590039
                 2.002    0.31320721150073
                0.5456    0.76037674173753
 p    1 1.00
                0.1517                   1
 d    1 1.00
                  0.55                   1

2 0
 s    8 1.00
                  6665  0.00069158396281299
                  1000  0.0053257961529341
                   228   0.027060721042034
                 64.71    0.10165684614077
                 21.06     0.2745748236174
                 7.495    0.44829431892377
                 2.797    0.28490261071525
                0.5215   0.015194859206082
 s    8 1.00
                  6665  -0.00029326965268655
                  1000  -0.0023180354739745
                   228  -0.011499786038565
                 64.71  -0.046826727009787
                 21.06   -0.12846616875047
                 7.495   -0.30126627246289
                 2.797   -0.25563070233011
                0.5215      1.093793361012
 s    1 1.00
                0.1596                   1
 p    3 1.00
                 9.439   0.056979251590039
                 2.002    0.31320721150073
                0.5456    0.76037674173753
 p    1 1.00
                0.1517                   1
 d    1 1.00
                  0.55                   1

3 0
 s    3 1.00
                 13.01   0.033498726389998
                 1.962    0.23480080117413
                0.4446     0.8136829578829
 s    1 1.00
                 0.122                   1
 p    1 1.00
                 0.727                   1

4 0
 s    3 1.00
                 13.01   0.033498726389998
                 1.962    0.23480080117413
                0.4446     0.8136829578829
 s    1 1.00
                 0.122                   1
 p    1 1.00
                 0.727                   1

5 0
 s    3 1.00
                 13.01   0.033498726389998
                 1.962    0.23480080117413
                0.4446     0.8136829578829
 s    1 1.00
                 0.122                   1
 p    1 1.00
                 0.727                   1

6 0
 s    3 1.00
                 13.01   0.033498726389998
                 1.962    0.23480080117413
                0.4446     0.8136829578829
 s    1 1.00
                 0.122                   1
 p    1 1.00
                 0.727                   1

7 0
 s    3 1.00
                 13.01   0.033498726389998
                 1.962    0.23480080117413
                0.4446     0.8136829578829
 s    1 1.00
                 0.122                   1
 p    1 1.00
                 0.727                   1

8 0
 s    3 1.00
                 13.01   0.033498726389998
                 1.962    0.23480080117413
                0.4446     0.8136829578829
 s    1 1.00
                 0.122                   1
 p    1 1.00
                 0.727                   1

[5d]
[7f]
[9g]

[MO]
 Sym= A
 Ene=               0
 Spin= Alpha
 Occup=    1.00000
   1    -2.8597732254873e-05
   2    -0.00046974481802645
   3    0.0019961903573117
   4    -0.0011470243045423
   5    -1.985305794449e-09
   6    7.9726601110894e-08
   7    0.00057964196971641
   8    4.9790229052764e-09
   9    4.4866871832465e-08
  10    0.00026023778425832
  11    -1.1275110601976e-08
  12    2.6577571573807e-11
  13    -0.0004507368142576
  14    -6.7664093193542e-09
  15       1.0026337699854
  16    -0.0003924282591997
  17    -0.012771651695208
  18    -0.00097409522217475
  19    -1.4467738284262e-07
  20    -1.7191064508257e-07
  21    0.00016818366313603
  22    -6.8569933544514e-08
  23    -8.4836597029438e-08
  24    8.9100499272444e-05
  25    -1.05469204001e-08
  26    7.3251455273781e-09
  27    -0.00015434408361872
  28    -5.6078753812817e-09
  29    -0.0029100202835072
  30    0.00074370255204824
  31    0.00021522631242014
  32    -4.5095445397043e-09
  33    0.00079117676476226
  34    -0.0029096794706699
  35    0.00074385793766772
  36    0.00021521515030652
  37    -0.00068516394903254
  38    -0.00039558239624278
  39    -0.002909896819597
  40    0.00074376386793477
  41    0.00021522247033574
  42    0.00068517103989586
  43    -0.00039559169732816
  44    1.2743556945854e-05
  45    0.00016362302353008
  46    2.4445158996356e-05
  47    9.0677621954005e-06
  48    5.2378513459377e-06
  49    1.2757824163088e-05
  50    0.00016364523281107
  51    2.4444996462361e-05
  52    -9.0670569388278e-06
  53    5.2374765283485e-06
  54    1.2872284321991e-05
  55    0.00016370336272154
  56    2.4448506802858e-05
  57    2.8026726897355e-11
  58    -1.047591569042e-05
 Sym= A
 Ene=               1
 Spin= Alpha
 Occup=    1.00000
   1       1.0026337736472
   2    -0.00039250104193607
   3    -0.012771713448516
   4    0.00097385519260973
   5    2.755742791611e-07
   6    1.3954547351845e-07
   7    -0.00016829366947247
   8    1.3494176601385e-07
   9    6.842541124137e-08
  10    8.9126281233023e-05
  11    -8.053549170003e-09
  12    -1.4006694103159e-08
  13    -0.00015435705961241
  14    -1.5690659668671e-08
  15    -2.8587868087279e-05
  16    -0.00046997283982456
  17    0.0019960364968492
  18    0.0011471884749543
  19    -1.0209639794077e-07
  20    -5.3984645111369e-08
  21    -0.00057956659574475
  22    -5.9724158303954e-08
  23    -3.1327420340545e-08
  24    0.00026023917765145
  25    -8.7294204699099e-09
  26    5.3108125847541e-09
  27    -0.00045075308781342
  28    -1.7061014987988e-08
  29    1.2675559762399e-05
  30    0.00016363186919002
  31    -2.4437147569502e-05
  32    -3.354465005768e-09
  33    -1.0461572311944e-05
  34    1.2853488070172e-05
  35    0.00016373769595552
  36    -2.4441984238572e-05
  37    9.065220815992e-06
  38    5.2339745011752e-06
  39    1.2667078873066e-05
  40    0.00016362631460589
  41    -2.4436937499859e-05
  42    -9.0613810192706e-06
  43    5.2278841909555e-06
  44    -0.0029101000173247
  45    0.00074367434759903
  46    -0.00021523499291882
  47    -0.00068518187910489
  48    -0.00039559055519307
  49    -0.0029096733958068
  50    0.00074387072806312
  51    -0.0002152210955365
  52    0.00068516881777855
  53    -0.0003955730198785
  54    -0.002909699380631
  55    0.00074385897971243
  56    -0.00021522195054018
  57    8.6553647204963e-09
  58    0.00079116135500211
 Sym= A
 Ene=               2
 Spin= Alpha
 Occup=    1.00000
   1    -0.0051637749646386
   2       0.1828601688684
   3      0.10682026737747
   4     -0.12364262274643
   5     -0.30096033856713
   6     -0.17375805747642
   7    -0.060254863734369
   8     -0.14282603779163
   9    -0.082459963234502
  10    -0.0038537687774057
  11    0.0068590281796373
  12     0.015240211208287
  13    -0.010922807675445
  14     0.011880262399465
  15    -0.0024114979295643
  16    -0.020201734119199
  17    -0.013582124788989
  18     0.024425895933378
  19    0.00040757205015673
  20    0.00023559964010545
  21     0.014949765491585
  22     0.012510519274551
  23    0.0072230278725338
  24    -0.0022532118951408
  25    0.0082297356368452
  26    -0.00017447933555917
  27    0.0041041765052706
  28     0.014254421476545
  29     0.012037911519861
  30     0.021136402751383
  31    0.0012339604270166
  32    0.00019977067545658
  33    0.00050448613362454
  34    -0.024465239456514
  35    -0.028024045758996
  36    0.0011254149270318
  37    0.00070815372709281
  38    0.00040886080147232
  39     0.012037688997444
  40      0.02113644766184
  41    0.0012339735846845
  42    0.00053680769292212
  43    -7.9242703001785e-05
  44      0.43301719521382
  45      0.15987243816101
  46      0.01265161585284
  47     0.026204131327691
  48     0.015129008085194
  49    -0.019656815130964
  50    -0.036550166911157
  51    -0.002573684821453
  52    -0.011472668373216
  53    -0.0042115127276302
  54    -0.019654923729892
  55     -0.03654937398901
  56    -0.0025736200914278
  57    -0.0093836508690896
  58    -0.007829962218346
 Sym= A
 Ene=               3
 Spin= Alpha
 Occup=    1.00000
   1    -0.0024112689651867
   2    -0.020202442613929
   3    -0.013582827026669
   4    -0.024429815257438
   5    2.4808924745832e-07
   6    -0.00047117787968097
   7    -0.014951609288933
   8    7.3613183957689e-08
   9    -0.014446120484188
  10    -0.0025148118555405
  11     0.016459557006255
  12    -1.2011810194516e-08
  13    0.0039527841564423
  14    4.1210929670076e-08
  15    -0.0051639452305754
  16      0.18285875781964
  17      0.10681915461041
  18      0.12364619968035
  19    1.0777532130737e-06
  20      0.34751794493431
  21     0.060256550487198
  22    5.0125375225508e-07
  23      0.16492079394174
  24      0.01900656836768
  25     0.013718127467202
  26    -5.444835658193e-08
  27    0.0022753052177183
  28    3.0737690973553e-08
  29      0.43301737121692
  30       0.1598727449236
  31    -0.012651521464973
  32    3.3448189462494e-08
  33    -0.030257951184749
  34    -0.019656033214737
  35    -0.036549636703806
  36    0.0025737572470325
  37    0.0020890931131192
  38     0.012041391294061
  39    -0.019654441926749
  40    -0.036548973847327
  41    0.0025737026173996
  42     -0.00208914691602
  43     0.012041460979823
  44     0.012038776125017
  45     0.021136987403624
  46    -0.0012340378858094
  47    -0.00033695190898558
  48     -0.00042523524411
  49     0.012039020711965
  50     0.021136974171379
  51    -0.001234024872472
  52    0.00033693523433882
  53    -0.00042521745893484
  54     -0.02446463619822
  55    -0.028023668191894
  56    -0.0011254974189959
  57    7.0650902675103e-09
  58    -0.00081776497026311
 Sym= A
 Ene=               4
 Spin= Alpha
 Occup=    1.00000
   1    -0.0024112349398537
   2    -0.020203709540256
   3    -0.013583609430118
   4    -0.024429653168899
   5    -0.0004079832300882
   6    0.00023320064391063
   7    -0.014951538516319
   8    -0.012510627058398
   9    0.0072219333683779
  10    -0.0022531784578186
  11    -0.0082296917797676
  12    0.0001744990661498
  13     0.004103876725162
  14      0.01425433673407
  15    -0.0051642093626529
  16      0.18285964748636
  17      0.10681965489851
  18      0.12364709188945
  19      0.30095820481555
  20     -0.17375912889243
  21     0.060256960675639
  22      0.14282504212842
  23    -0.082460373453047
  24    -0.0038536326881197
  25    -0.0068589569087039
  26    -0.015240103369745
  27    -0.010923149444973
  28      0.01188019776019
  29    -0.019654484961125
  30    -0.036548974320641
  31    0.0025737246837845
  32    0.0093835845981561
  33    -0.0078300120224101
  34    -0.019653648657628
  35    -0.036548836732978
  36    0.0025736875201784
  37     0.011472846389627
  38    -0.004211403601966
  39       0.4330172016929
  40       0.1598724430108
  41    -0.012651505031903
  42    -0.026204203160529
  43     0.015128979382661
  44     0.012039136853573
  45     0.021137215563822
  46    -0.0012340269138823
  47    -0.00053672247942098
  48    -7.9260999537357e-05
  49     -0.02446415553609
  50    -0.028023199471012
  51    -0.0011254899735198
  52    -0.00070820984374373
  53    0.00040881243419471
  54     0.012036163491347
  55     0.021136005101527
  56    -0.0012341301177362
  57    -0.00019978216905809
  58    0.00050460061028059
 Sym= A
 Ene=               5
 Spin= Alpha
 Occup=    1.00000
   1    -0.0051646490208603
   2      0.18286013104765
   3      0.10682002115576
   4     -0.12364624118175
   5    3.200056344896e-07
   6      0.34751697891537
   7    -0.060256581512876
   8    5.3403854067131e-08
   9      0.16492035497987
  10     0.019006522673785
  11    -0.013718111851962
  12    -1.4974867667021e-08
  13    0.0022752870127644
  14    1.0118635813611e-07
  15    -0.0024117274557258
  16    -0.020202437391653
  17    -0.013582774969135
  18      0.02442918785841
  19    2.4053798178374e-06
  20    -0.00047165253856261
  21     0.014951335264343
  22    1.1282855409526e-06
  23    -0.014446306180275
  24    -0.0025148769635901
  25    -0.016459530010656
  26    -1.2163983329448e-07
  27    0.0039528498430163
  28    7.965769682668e-08
  29    -0.024465172541106
  30    -0.028023827147353
  31    0.0011255050603644
  32    7.4796479311919e-08
  33    -0.0008177264599839
  34     0.012037090839198
  35     0.021136195430336
  36     0.001234078778039
  37    -0.00033700053557475
  38    -0.00042531662198969
  39     0.012040670217904
  40      0.02113771279026
  41    0.0012339569533846
  42    0.00033688143794299
  43    -0.00042516149340511
  44    -0.019654236769597
  45    -0.036548962631983
  46    -0.0025736929388023
  47    0.0020892149104946
  48     0.012041446204283
  49    -0.019654042346365
  50    -0.036549144632315
  51    -0.0025736757173994
  52    -0.002089240685642
  53     0.012041470879881
  54      0.43301726006084
  55      0.15987251752642
  56     0.012651524569512
  57    8.4821205477353e-09
  58    -0.030257996533392
 Sym= A
 Ene=               6
 Spin= Alpha
 Occup=    1.00000
   1    -0.0024116195946955
   2    -0.020201983767556
   3    -0.013582470337904
   4    -0.024428849538234
   5    0.00040764389475878
   6    0.00023646720490729
   7    -0.014951177400304
   8     0.012510521055498
   9    0.0072234008508911
  10    -0.0022530769558214
  11    -0.0082297251010361
  12    -0.00017448257006587
  13    0.0041040296803333
  14     -0.01425438695799
  15    -0.0051647204713577
  16      0.18286014424192
  17      0.10682006737845
  18      0.12364568806503
  19     -0.30095954908968
  20     -0.17375711207044
  21     0.060256325249628
  22     -0.14282566611528
  23    -0.082459550133836
  24    -0.0038536234808687
  25    -0.0068590319650445
  26     0.015240171267525
  27    -0.010922964476602
  28     -0.01188023468476
  29    -0.019653159796665
  30    -0.036548666925494
  31     0.002573636527378
  32    -0.0093836262992692
  33    -0.0078300992804609
  34      0.43301722802438
  35      0.15987248140655
  36    -0.012651537689248
  37     0.026204162253414
  38     0.015129040691582
  39    -0.019655603563586
  40     -0.03654962025665
  41    0.0025737230148261
  42     -0.01147273824888
  43    -0.0042114292626985
  44    -0.024464735749753
  45    -0.028023718126197
  46    -0.0011254782617108
  47    0.00070818782245585
  48    0.00040890593796696
  49     0.012038206607609
  50     0.021136693908419
  51    -0.0012340329459132
  52    0.00053676676237301
  53    -7.9191600315258e-05
  54      0.01203945449948
  55     0.021137046870506
  56    -0.0012339834138757
  57    0.00019977242473728
  58    0.00050436991178638
 Sym= A
 Ene=               7
 Spin= Alpha
 Occup=    1.00000
   1    -0.0051646826129794
   2      0.18285975616785
   3      0.10681970841211
   4     -0.12364740002707
   5      0.30095741582447
   6     -0.17376011821675
   7    -0.060257106511559
   8      0.14282468557851
   9    -0.082460921340983
  10    -0.0038536650673742
  11    0.0068590865752746
  12    -0.015240063639659
  13    -0.010923195516558
  14    -0.011880187283762
  15    -0.0024114577228168
  16    -0.020203839647344
  17    -0.013583701155108
  18     0.024429844101291
  19    -0.00040841904000297
  20    0.00023511730714867
  21     0.014951631256282
  22    -0.012510801565233
  23    0.0072228833376436
  24    -0.0022530893362089
  25    0.0082298141210031
  26    0.00017452073134819
  27    0.0041039174850693
  28     -0.01425431658256
  29     0.012037896342634
  30     0.021136840245513
  31    0.0012340803687911
  32    -0.0001997952664196
  33    0.00050452250673248
  34     0.012038551850115
  35      0.02113690663207
  36    0.0012340495768195
  37    -0.00053677245552681
  38    -7.9221918487095e-05
  39    -0.024465301881875
  40    -0.028023664558468
  41    0.0011255350225734
  42    -0.00070813521698169
  43    0.00040882215965151
  44    -0.019652430140215
  45    -0.036548289870775
  46    -0.0025736548368584
  47     0.011472911034646
  48    -0.0042113842697694
  49      0.43301728558835
  50      0.15987254591182
  51     0.012651497613387
  52    -0.026204227349696
  53     0.015128947265606
  54    -0.019655320240902
  55    -0.036549478097459
  56    -0.0025737546831256
  57    0.0093835602697243
  58    -0.0078299908985293
 Sym= A
 Ene=               8
 Spin= Alpha
 Occup=    1.00000
   1    0.0054867763601311
   2     -0.19708859317089
   3     -0.14774813879939
   4     -0.36704532737013
   5    -3.0326571874788e-06
   6    -6.5984693338407e-07
   7     -0.17037516870453
   8    -1.3915306167892e-06
   9    -2.9959306538875e-07
  10     0.016079686964954
  11    1.0384818413261e-08
  12    1.529741217341e-07
  13    -0.027850901282106
  14    6.4606650254265e-08
  15    0.0054874175052638
  16     -0.19709000332363
  17     -0.14774898411751
  18      0.36704463702544
  19    -1.1606848664579e-06
  20    -3.3016535917954e-07
  21      0.17037485453884
  22    -4.2664444270369e-07
  23    -1.2966255481189e-07
  24     0.016079659053149
  25    1.8205231846914e-08
  26    5.7224466158581e-08
  27    -0.027850819211623
  28    9.7731153332098e-08
  29     0.022114425222074
  30     0.037312837649464
  31    0.0094952458515375
  32    -3.4303086461493e-08
  33    0.0014247901226037
  34     0.022115479073684
  35     0.037313063651557
  36    0.0094952011309352
  37    -0.0012338446993657
  38    -0.00071235064824672
  39     0.022114095125557
  40     0.037312799073882
  41    0.0094952611512365
  42    0.0012339142654208
  43    -0.00071243042201995
  44      0.02211806693772
  45     0.037314071461653
  46    -0.0094951235690626
  47    -0.0012336996331031
  48    -0.00071224300934693
  49      0.02211364442557
  50      0.03731228142372
  51    -0.0094952774882895
  52    0.0012338529717069
  53    -0.00071243988650954
  54     0.022115030363288
  55     0.037312850066738
  56    -0.0094952295605605
  57    -9.383132224693e-08
  58    0.0014246962179683
 Sym= A
 Ene=               9
 Spin= Alpha
 Occup=    0.00000
   1      -0.1639612309891
   2     -0.21021793876871
   3       3.6236296961028
   4      0.32284365502296
   5    0.00015619975901003
   6    0.0001470345250936
   7       1.7661715677681
   8    0.00067848831396911
   9    0.00043182997116288
  10    -0.084221862695297
  11    8.5352220817068e-05
  12    -0.0016674100267484
  13       0.1480847262055
  14    -2.9874651030406e-06
  15      0.27470061596561
  16      0.52594533037978
  17      -2.0787204533662
  18     -0.34874977634258
  19    9.5170610375783e-06
  20    -1.8258044831271e-05
  21       3.6704168837406
  22    -0.00067182673615923
  23    -0.00035545212098613
  24      0.13379365595124
  25    0.00014120258667274
  26    -0.00063927621573395
  27     -0.23310149925897
  28    -0.00029497357145507
  29     -0.16695157563638
  30     -0.50620763525817
  31     -0.29759716378174
  32    0.00030008538063082
  33      0.18358533021451
  34      -0.1673763480663
  35     -0.50667211834415
  36     -0.29752608111505
  37     -0.15891809746435
  38     -0.09208594805964
  39     -0.16730816469086
  40     -0.50605199216444
  41     -0.29727532946314
  42      0.15906460531938
  43    -0.091824792202629
  44     -0.15180560905771
  45      0.12407378494044
  46    0.0096559729192794
  47    0.00078204935386426
  48    0.00048861446324065
  49     -0.15316554142992
  50      0.12368308703645
  51    0.0091082236916885
  52    -0.00016254309507088
  53    0.0005740654496999
  54     -0.15323167428782
  55      0.12368354968506
  56    0.0090622350153052
  57    0.00038338184191308
  58    -0.00040138078999606
 Sym= A
 Ene=              10
 Spin= Alpha
 Occup=    0.00000
   1     0.062670227847747
   2     0.073281666975734
   3      -1.2086939169928
   4     -0.12831816747475
   5    -0.024596576614233
   6    -0.014294972857591
   7     -0.43404372237356
   8      0.80627326099335
   9      0.46500832958575
  10     0.003189403415239
  11     0.058019813863454
  12     0.021859025829776
  13    -0.031501786872256
  14      0.10063080143661
  15     -0.40681817140935
  16     -0.71646567771386
  17       3.4078253664934
  18      0.16845638426763
  19      -0.0712200223671
  20    -0.040751095858291
  21     -0.10021437245554
  22      -2.3648012029411
  23      -1.3643687068479
  24     -0.11920815276254
  25     -0.14657428852554
  26      0.30929478037011
  27      -0.1433383864616
  28     -0.25351036478414
  29    -0.051176132545382
  30        0.309553209265
  31      -0.0369001019319
  32      0.25834338722816
  33     0.018835013618388
  34      -1.6753895493785
  35      -1.8964136385079
  36      0.25707345020593
  37     -0.40735963095781
  38     -0.23427157317677
  39    -0.048897765420458
  40      0.30990833963634
  41    -0.038037354349624
  42      0.14521699079609
  43      0.21546691447377
  44      0.11032854890851
  45      0.42193611497209
  46    -0.045830637157303
  47    -0.019755987065808
  48    -0.011458438062727
  49     0.054806837460214
  50     -0.12446368023838
  51     0.032410611057848
  52    -0.049957131246624
  53    -0.039467422554652
  54     0.055122656147058
  55     -0.12422575165436
  56      0.03245045339643
  57    -0.059114904646963
  58     -0.02363275179875
 Sym= A
 Ene=              11
 Spin= Alpha
 Occup=    0.00000
   1     -0.40681843962734
   2     -0.71646727709357
   3       3.4078161262017
   4     -0.16845768201054
   5     0.071221309920889
   6    -0.040752250806624
   7      0.10020477212245
   8       2.3648105129231
   9      -1.3643530125972
  10      -0.1192040997941
  11      0.14657269955678
  12     -0.30929666085628
  13     -0.14333986749571
  14     -0.25351025838499
  15     0.062669784894255
  16     0.073281602925935
  17      -1.2086818558881
  18      0.12831635643835
  19     0.024596699815215
  20    -0.014294453630124
  21      0.43403563620709
  22      -0.8062796674159
  23      0.46500291560968
  24    0.0031881442191987
  25    -0.058018672948083
  26    -0.021858696116379
  27    -0.031499089003531
  28      0.10063116417213
  29     0.055122296924431
  30     -0.12422335357279
  31    -0.032450028292262
  32     0.059115532389615
  33    -0.023632374242704
  34     0.054805232708171
  35     -0.12446653030593
  36    -0.032410562600355
  37     0.049957208018423
  38    -0.039467371083091
  39       0.1103293293944
  40      0.42193797742706
  41     0.045830451137882
  42     0.019756039556256
  43    -0.011457730151736
  44    -0.048891604150746
  45      0.30991563084644
  46     0.038039231449945
  47      -0.1452150432827
  48      0.21546706445884
  49       -1.675390319445
  50      -1.8964146454711
  51     -0.25707274006564
  52      0.40735949789589
  53     -0.23427354576972
  54    -0.051181894838897
  55      0.30954492104004
  56     0.036899438236397
  57     -0.25834393143595
  58     0.018836260193625
 Sym= A
 Ene=              12
 Spin= Alpha
 Occup=    0.00000
   1     -0.40674664630272
   2     -0.71633575886706
   3       3.4074266338662
   4     -0.16833193673431
   5    0.00032040815595866
   6     0.082081008073915
   7     0.099769855885636
   8    0.00064609059871973
   9       2.7305177196221
  10      0.34017630232117
  11     -0.29285483791668
  12    -0.0030159725382845
  13      0.12188441972026
  14    0.0001762674280196
  15     0.062680956592459
  16     0.073329459902752
  17      -1.2082202777518
  18      0.12826780948173
  19    -9.0338755417453e-06
  20     0.028329155495149
  21      0.43390589802237
  22    -0.00022276690601121
  23     -0.93117691063033
  24     0.035678784055189
  25       0.1162283043997
  26    -0.0003161473578465
  27    -0.012989854809692
  28    4.5099252612484e-05
  29      0.11073293207092
  30      0.42207361776457
  31     0.045639068811085
  32    0.00010817534000747
  33     0.022693638621029
  34      0.05474303160374
  35     -0.12447824873419
  36    -0.032378514611142
  37    -0.0090611897647894
  38     0.062750844092548
  39     0.054572441646418
  40     -0.12434184886553
  41    -0.032228160504661
  42     0.009197861698327
  43     0.062808002710754
  44    -0.048855202899208
  45      0.30988401980137
  46     0.038084645773546
  47       0.1139769705471
  48     -0.23347367126401
  49    -0.050989035453368
  50      0.30964872600225
  51     0.037054389251232
  52     -0.11289197648766
  53     -0.23320156446519
  54      -1.6755088027201
  55      -1.8965884809703
  56     -0.25704837198935
  57    0.00077459444408469
  58      0.46995147723699
 Sym= A
 Ene=              13
 Spin= Alpha
 Occup=    0.00000
   1     -0.27469986086895
   2     -0.52594715730717
   3       2.0786821039697
   4     -0.34875563442438
   5    8.3545293078943e-06
   6    1.8839690157136e-05
   7        3.670403658389
   8    -0.00066073492126372
   9    0.00034557746203649
  10     -0.13378873669016
  11    0.00014344265413751
  12    -0.00063967352834814
  13      0.23309566677756
  14    0.00029445333271695
  15      0.16395931075949
  16       0.2102162115623
  17      -3.6235998283734
  18      0.32283912234142
  19    0.00015694239469986
  20    -0.00014756080694964
  21       1.7661501238258
  22    0.00067386120200919
  23    -0.00042770221775509
  24     0.084217754400184
  25    8.5535925532398e-05
  26    -0.0016680931039461
  27      -0.1480778091342
  28    3.294675083091e-06
  29      0.15323050562947
  30       -0.123684572227
  31    0.0090625889017811
  32    0.00038397213490365
  33    0.00040103098388273
  34      0.15316514049838
  35     -0.12368321678213
  36     0.009108673369075
  37    -0.00016184417041673
  38    -0.00057436440577487
  39       0.1518053504064
  40     -0.12407124059841
  41    0.0096570827320375
  42    0.00078210245421031
  43    -0.00048872563152325
  44      0.16731361445134
  45      0.50605542458098
  46      -0.2972746932999
  47      0.15906437067286
  48     0.091827415493871
  49      0.16737619987738
  50      0.50666609759085
  51     -0.29752629750577
  52      -0.1589181308453
  53     0.092086996033907
  54      0.16695882472776
  55      0.50621376363286
  56     -0.29759691012084
  57    0.00029859476950638
  58     -0.18358701234802
 Sym= A
 Ene=              14
 Spin= Alpha
 Occup=    0.00000
   1     0.062634438387357
   2     0.073243872765077
   3      -1.2083438069943
   4     -0.12840251974959
   5     0.024576735438902
   6     -0.01427212515563
   7     -0.43408355249473
   8     -0.80616380416473
   9      0.46519215048589
  10    0.0034746438697236
  11     0.058026764611338
  12    -0.021074275412033
  13    -0.031815349527126
  14      -0.1005536021001
  15     -0.40672021634135
  16     -0.71625052403677
  17       3.4074052282745
  18      0.16834795177532
  19     0.070879112138812
  20    -0.040925230165539
  21    -0.099803287801764
  22       2.3640033426847
  23      -1.3646257170425
  24     -0.12057224858761
  25      -0.1466102893092
  26     -0.30501217668244
  27     -0.14299238573936
  28      0.25393404663511
  29    -0.050554245279963
  30      0.30958261667694
  31    -0.037346193814001
  32     -0.25948257992823
  33     0.018646470849278
  34    -0.050394546318896
  35      0.30972391899755
  36    -0.037456452767609
  37     -0.14592464054939
  38      0.21546914950651
  39      -1.6740660907547
  40      -1.8963656812257
  41      0.25615561542604
  42      0.40662186775523
  43     -0.23474371350174
  44     0.054457396329231
  45     -0.12441903473928
  46     0.032210614723418
  47     0.049788291098148
  48    -0.039444089682596
  49      0.11056234621934
  50      0.42194200509378
  51    -0.045683180960067
  52     0.019607789381891
  53     -0.01149623745809
  54     0.054943893293308
  55     -0.12431154626446
  56     0.032399332531116
  57     0.058894470874098
  58    -0.023587250322896
 Sym= A
 Ene=              15
 Spin= Alpha
 Occup=    0.00000
   1     0.062680956005337
   2     0.073329381832752
   3      -1.2082137886882
   4      -0.1282683407173
   5    8.6488914545785e-06
   6     0.028329027054525
   7     -0.43390527645723
   8    0.00022926968583087
   9     -0.93117604482028
  10     0.035679977351646
  11     -0.11622816673571
  12    0.00031582560130101
  13    -0.012991793305185
  14    4.6220913263157e-05
  15     -0.40674609194061
  16     -0.71633392090522
  17       3.4074285553139
  18      0.16832765493731
  19    -0.00031907550473167
  20      0.08208139423034
  21    -0.099758577439994
  22    -0.00066247614539389
  23       2.7305161668822
  24      0.34017368249822
  25       0.2928536394147
  26     0.003018402688659
  27      0.12188538496894
  28    0.00017579237728065
  29      -1.6755082872746
  30      -1.8965912508203
  31      0.25704626906383