[Molden Format]
made by pyscf v[2.0.1]
[Atoms] (AU)
C   1   6     0.00000000000000     0.00000000000000     0.00000000000000
C   2   6     2.89040035821050     0.00000000000000     0.00000000000000
H   3   1     3.65380793584534     0.00000000000000     1.93990930394644
H   4   1     3.65380793584534    -1.68001073825540    -0.96995465197322
H   5   1     3.65380793584534     1.68001073825540    -0.96995465197322
H   6   1    -0.76340757763484    -1.24694966449241     1.48605674244297
H   7   1    -0.76340757763484     1.91043772266697     0.33686171546942
H   8   1    -0.76340757763484    -0.66348805817456    -1.82291845791239
[GTO]
1 0
 s    8 1.00
                  6665  0.00069158396281299
                  1000  0.0053257961529341
                   228   0.027060721042034
                 64.71    0.10165684614077
                 21.06     0.2745748236174
                 7.495    0.44829431892377
                 2.797    0.28490261071525
                0.5215   0.015194859206082
 s    8 1.00
                  6665  -0.00029326965268655
                  1000  -0.0023180354739745
                   228  -0.011499786038565
                 64.71  -0.046826727009787
                 21.06   -0.12846616875047
                 7.495   -0.30126627246289
                 2.797   -0.25563070233011
                0.5215      1.093793361012
 s    1 1.00
                0.1596                   1
 p    3 1.00
                 9.439   0.056979251590039
                 2.002    0.31320721150073
                0.5456    0.76037674173753
 p    1 1.00
                0.1517                   1
 d    1 1.00
                  0.55                   1

2 0
 s    8 1.00
                  6665  0.00069158396281299
                  1000  0.0053257961529341
                   228   0.027060721042034
                 64.71    0.10165684614077
                 21.06     0.2745748236174
                 7.495    0.44829431892377
                 2.797    0.28490261071525
                0.5215   0.015194859206082
 s    8 1.00
                  6665  -0.00029326965268655
                  1000  -0.0023180354739745
                   228  -0.011499786038565
                 64.71  -0.046826727009787
                 21.06   -0.12846616875047
                 7.495   -0.30126627246289
                 2.797   -0.25563070233011
                0.5215      1.093793361012
 s    1 1.00
                0.1596                   1
 p    3 1.00
                 9.439   0.056979251590039
                 2.002    0.31320721150073
                0.5456    0.76037674173753
 p    1 1.00
                0.1517                   1
 d    1 1.00
                  0.55                   1

3 0
 s    3 1.00
                 13.01   0.033498726389998
                 1.962    0.23480080117413
                0.4446     0.8136829578829
 s    1 1.00
                 0.122                   1
 p    1 1.00
                 0.727                   1

4 0
 s    3 1.00
                 13.01   0.033498726389998
                 1.962    0.23480080117413
                0.4446     0.8136829578829
 s    1 1.00
                 0.122                   1
 p    1 1.00
                 0.727                   1

5 0
 s    3 1.00
                 13.01   0.033498726389998
                 1.962    0.23480080117413
                0.4446     0.8136829578829
 s    1 1.00
                 0.122                   1
 p    1 1.00
                 0.727                   1

6 0
 s    3 1.00
                 13.01   0.033498726389998
                 1.962    0.23480080117413
                0.4446     0.8136829578829
 s    1 1.00
                 0.122                   1
 p    1 1.00
                 0.727                   1

7 0
 s    3 1.00
                 13.01   0.033498726389998
                 1.962    0.23480080117413
                0.4446     0.8136829578829
 s    1 1.00
                 0.122                   1
 p    1 1.00
                 0.727                   1

8 0
 s    3 1.00
                 13.01   0.033498726389998
                 1.962    0.23480080117413
                0.4446     0.8136829578829
 s    1 1.00
                 0.122                   1
 p    1 1.00
                 0.727                   1

[5d]
[7f]
[9g]

[MO]
 Sym= A
 Ene=               0
 Spin= Alpha
 Occup=    1.00000
   1       1.0022681450264
   2    0.0054709237652086
   3    -0.0088586189208531
   4    -0.0002104694993664
   5    -1.407577273825e-07
   6    -1.2095080585195e-07
   7    -0.00078997430309889
   8    -6.2600019482135e-08
   9    -5.680698669108e-08
  10    8.8985322194247e-05
  11    6.2742041159778e-09
  12    2.9973070200122e-09
  13    -0.00015410909076636
  14    -2.121300224165e-09
  15    -0.00012776428042197
  16    0.00016410107989496
  17    0.0023523646300532
  18    -0.00031277731451828
  19    -1.6294056854294e-07
  20    2.6512565920305e-08
  21    -0.0011805785229214
  22    -7.2892305193171e-08
  23    1.4498160694883e-08
  24    9.9401237882145e-05
  25    6.972034902105e-09
  26    7.9447983757344e-09
  27    -0.0001721623825229
  28    9.7901640736933e-11
  29    -9.9279906726478e-05
  30    0.00011009244380925
  31    -4.7041411283663e-05
  32    3.2815132099548e-06
  33    -1.8342544682781e-05
  34    -9.9213836148489e-05
  35    0.00011009789371186
  36    -4.7043558565964e-05
  37    1.4244868642778e-05
  38    1.2022908735177e-05
  39    -9.9441819951484e-05
  40    0.00011001422543877
  41    -4.7035513683884e-05
  42    -1.7522612169343e-05
  43    6.3202280765437e-06
  44    0.00047747823080035
  45    0.0012609060817418
  46    -8.9270512377039e-05
  47    -0.00023816203268469
  48    0.0002819034103581
  49    0.00047736160662094
  50    0.0012608762940414
  51    -8.9274448801197e-05
  52    0.0003632255386047
  53    6.5295444026343e-05
  54    0.00047762781413155
  55    0.0012609811944678
  56    -8.9265096289721e-05
  57    -0.00012505984694631
  58    -0.00034719710946577
 Sym= A
 Ene=               1
 Spin= Alpha
 Occup=    1.00000
   1    -0.00012778990383676
   2    0.00016397511285477
   3     0.002352290160267
   4    0.00031287569408406
   5    -3.5963193977545e-08
   6    -5.5334512258702e-08
   7    0.0011806260206176
   8    -3.8060318825873e-08
   9    -4.0942383778792e-08
  10    9.9403694615113e-05
  11    1.5378925960746e-08
  12    -4.2716055165389e-09
  13    -0.00017215276735505
  14    4.4333541643272e-08
  15       1.0022681443756
  16    0.0054709728544676
  17    -0.0088585866818286
  18    0.00021045636177521
  19    8.9066409138477e-07
  20    2.8246792035562e-07
  21    0.00078996638667281
  22    4.2497571767944e-07
  23    1.3620541483276e-07
  24    8.8993392115866e-05
  25    1.3986330355373e-08
  26    -4.6289558385372e-08
  27    -0.00015410795215486
  28    3.784168328204e-08
  29    0.00047775886240494
  30    0.0012610349226414
  31    8.9259690623881e-05
  32    1.2606066193799e-06
  33    0.0003690245169347
  34    0.00047670962675304
  35    0.0012605642275312
  36    8.929552755794e-05
  37    -0.00032024159575409
  38    -0.0001834749348116
  39    0.00047805459347385
  40    0.0012611619845394
  41    8.9249814542978e-05
  42    0.00031896540301864
  43    -0.0001855542114331
  44    -9.9394156735514e-05
  45    0.00011008445407743
  46    4.7039918302556e-05
  47    9.2616413102629e-06
  48    -1.6155034015829e-05
  49    -9.9512802337635e-05
  50    0.00010992918891932
  51    4.7034695729658e-05
  52    -1.8624285707943e-05
  53    5.1715793517815e-08
  54    -9.9309075286678e-05
  55    0.00011012718557135
  56    4.7040822021086e-05
  57    9.3564644893095e-06
  58    1.6103323721806e-05
 Sym= A
 Ene=               2
 Spin= Alpha
 Occup=    1.00000
   1    -0.0024375879556878
   2    -0.020545413042288
   3    -0.014749003171559
   4    -0.025102785527425
   5    -0.0014225206912031
   6    3.5613919503838e-06
   7    -0.014927303545862
   8    0.0057375304053957
   9    0.0069440435599173
  10    -0.0046367622232048
  11    -0.0081232086248764
  12     0.001525021657146
  13    0.0024579571734997
  14    -0.014427592576206
  15    -0.013381943642296
  16      0.18309434810695
  17      0.10996018481328
  18      0.12434548748062
  19     -0.30007673540652
  20     -0.17224256509683
  21     0.060940695013847
  22     -0.14261828298319
  23    -0.082187995402825
  24    -0.0044544430532472
  25    -0.0069349742951822
  26     0.015467223885179
  27    -0.011082480744441
  28      -0.0121201921119
  29     -0.01996463534894
  30    -0.037121142253781
  31     0.002560297037091
  32    -0.0092313227716828
  33    -0.0078955345615599
  34      0.43103507729018
  35      0.16151805759366
  36    -0.012830960419298
  37     0.025840987577583
  38      0.01506428387501
  39    -0.020230618474324
  40    -0.037607359318989
  41     0.002540355636441
  42     -0.01128819814665
  43    -0.0040896815170297
  44    -0.0044277493646655
  45    -0.0036313030688766
  46    -0.0019054540032454
  47    0.00064563953383697
  48    2.8932608724006e-05
  49     0.022820227067995
  50     0.040520258031846
  51    -0.00042482160623661
  52     0.001169813111081
  53    0.0002093887360812
  54    -0.018639461333092
  55    -0.021343566698768
  56    -0.0016847690135009
  57    0.00060174264759993
  58    0.00065019684214914
 Sym= A
 Ene=               3
 Spin= Alpha
 Occup=    1.00000
   1    -0.013383641526359
   2       0.1830933523701
   3      0.10995933240673
   4     -0.12434942086459
   5     -0.22306299464117
   6      0.26449172435336
   7    -0.060942559047715
   8      -0.1059043269325
   9       0.1260117999627
  10    0.0060598289407274
  11    -0.010662190734557
  12    -0.017890096186502
  13    -0.0050123837347974
  14    0.0090171405612671
  15    -0.0024370893342977
  16    -0.020545869873599
  17    -0.014749557648029
  18     0.025106976965127
  19    -0.0013369663098259
  20    0.00048488857467548
  21     0.014929291060281
  22    0.0030167747375825
  23    -0.0084868667257278
  24    -0.0032230596403159
  25    -0.012567990343958
  26    -0.0029594259745176
  27    0.0032738027150343
  28     0.010778932876007
  29    -0.018637156249942
  30    -0.021342870720414
  31    0.0016848044382376
  32    0.00034309513078594
  33    -0.00081698312665734
  34    -0.0044275040818814
  35    -0.0036305625568049
  36    0.0019055528093824
  37    0.00059679563563082
  38    -0.00024798618082292
  39     0.022821141475343
  40     0.040520505749431
  41    0.00042488794947563
  42    0.0010275795826864
  43    -0.00059676410396045
  44      0.43103512777655
  45      0.16151818499963
  46      0.01283085952446
  47     0.019130496878889
  48    -0.022993805718586
  49     -0.02022369098216
  50     -0.03760427340376
  51    -0.0025402255943521
  52    -0.009209063975391
  53    0.0077038661336308
  54    -0.019969164733478
  55    -0.037122863447433
  56    -0.0025605562539843
  57    -0.0059741175294799
  58     0.010576425264332
 Sym= A
 Ene=               4
 Spin= Alpha
 Occup=    1.00000
   1    -0.0024373865993065
   2    -0.020546420333728
   3    -0.014749980596003
   4    -0.025108186823112
   5    0.00071774644084304
   6    0.0012299642074538
   7    -0.014929859755307
   8    0.0031465315859355
   9    -0.0084409448551864
  10    0.00012694288360448
  11     0.016556220168821
  12    0.0016508208189219
  13     0.005207819461577
  14    0.00017880971515984
  15    -0.013384234448603
  16       0.1830930177368
  17      0.10995904572818
  18      0.12435073648903
  19    0.00087311600224964
  20      0.34599426229344
  21     0.060943176291246
  22    0.00013272728651945
  23       0.1646045659417
  24     0.019355637495416
  25     0.013963844493842
  26    0.00040604075328976
  27    0.0026638322310204
  28    5.4116645200954e-05
  29      0.43103521860534
  30      0.16151828921094
  31    -0.012830822793095
  32    0.00012558942772109
  33    -0.029911128802098
  34    -0.020229739067488
  35    -0.037606564804469
  36    0.0025404618228679
  37    0.0021023980355886
  38     0.011820692623575
  39     -0.01996240100047
  40    -0.037120196081754
  41    0.0025603571072783
  42    -0.0022222159500889
  43     0.011942393612472
  44    -0.018640093192485
  45    -0.021343592342816
  46    -0.0016849299882503
  47    0.00026227413056567
  48    -0.00084617234679848
  49    -0.0044236513377313
  50       -0.003629429504
  51    -0.0019054521709166
  52    -0.00029800331138851
  53    -0.0005736703666866
  54     0.022820615261243
  55     0.040520499439558
  56    -0.0004249495019291
  57    -0.00040345677210264
  58    -0.0011177558061054
 Sym= A
 Ene=               5
 Spin= Alpha
 Occup=    1.00000
   1    -0.013383240592769
   2      0.18309208577055
   3       0.1099585443388
   4     -0.12434896046528
   5      0.34058913060023
   6     0.060932218549328
   7    -0.060942318773056
   8      0.16208212137841
   9     0.028710000919225
  10    -0.010919492225743
  11    -0.0024781771320176
  12    0.0065706350225465
  13    -0.014815394164655
  14    -0.013742452612007
  15    -0.0024369721355237
  16     -0.02054632962227
  17     -0.01474984813311
  18     0.025106910274647
  19    0.0010861503847716
  20    0.00091110498437408
  21     0.014929232912612
  22    -0.0088593281121228
  23    0.0016287957728595
  24    -0.0039432636086711
  25    -0.0030510021950915
  26    0.0024795316918852
  27    0.0028579438189863
  28    -0.016273809492122
  29    -0.0044314940798798
  30    -0.0036322618735058
  31    0.0019056877860438
  32    -0.00051323188472937
  33    -0.0003926305229752
  34     0.022824513591544
  35     0.040522121135564
  36    0.00042476978789857
  37    -0.0010304442342056
  38    -0.00059152643122729
  39    -0.018637311617203
  40    -0.021342959344303
  41    0.0016848063859407
  42    -0.00087913067764822
  43    0.00011122046126478
  44    -0.019970511518429
  45    -0.037123159086025
  46    -0.002560603246021
  47     0.012146449828249
  48    -0.00011435399871368
  49      0.43103548247851
  50      0.16151878132065
  51     0.012830880835725
  52    -0.029478406861192
  53    -0.0050705878286382
  54    -0.020225023720437
  55    -0.037605028537984
  56    -0.0025402653846049
  57     0.011276278684112
  58    0.0041232546659007
 Sym= A
 Ene=               6
 Spin= Alpha
 Occup=    1.00000
   1    -0.0024370269440458
   2     -0.02054589093544
   3    -0.014749542401651
   4    -0.025106452702551
   5    0.00070600209156348
   6    -0.0012320236943042
   7    -0.014929019809668
   8    -0.0088835194076171
   9    0.0014976778180655
  10    -0.0021604708930496
  11    -0.0084332007347378
  12    -0.0031758955366044
  13    0.0038872784551894
  14     0.014248770720665
  15    -0.013384809408762
  16      0.18309208504168
  17      0.10995860314753
  18      0.12434829191002
  19      0.29920442512421
  20     -0.17375435872988
  21     0.060942005199011
  22      0.14248589675055
  23    -0.082417865467707
  24    -0.0038452978093991
  25    -0.0070290508696306
  26      -0.0158733069055
  27    -0.010731038469571
  28     0.012066049505835
  29    -0.020232273331997
  30    -0.037607870566216
  31    0.0025404934679064
  32     0.009185858684198
  33    -0.0077309124901299
  34    -0.019963924822971
  35    -0.037120591919099
  36    0.0025603601346348
  37     0.011453415277204
  38    -0.0040468265783526
  39      0.43103550271959
  40      0.16151878285895
  41    -0.012830891230554
  42    -0.025966533728654
  43     0.014846748581309
  44     0.022823600244972
  45     0.040521849992304
  46    -0.00042479748762086
  47    -0.00076613214524369
  48    0.00090823676286065
  49    -0.018640053333383
  50    -0.021343729536976
  51     -0.00168487657683
  52    -0.000863966867189
  53    0.00019609031121237
  54    -0.0044276507769636
  55    -0.0036313376818799
  56    -0.0019055402247753
  57    -0.00034793484852003
  58    0.00054474704154125
 Sym= A
 Ene=               7
 Spin= Alpha
 Occup=    1.00000
   1    -0.013383891187614
   2      0.18309213058188
   3       0.1099585497504
   4     -0.12434946182685
   5     -0.11752461051773
   6     -0.32542508890185
   7    -0.060942576939642
   8    -0.056177036741495
   9     -0.15472228867005
  10     0.015915754783497
  11     0.013140333848717
  12     0.011319560039212
  13    0.00067794740469014
  14    0.0047251635832808
  15    -0.0024372755113051
  16    -0.020545277013584
  17    -0.014749231334141
  18     0.025107901954817
  19    0.00024903129167457
  20    -0.0013976830332569
  21     0.014929719104685
  22    0.0058416750565522
  23    0.0068573080959375
  24    0.00049622731723919
  25     0.015618978608109
  26    0.0004800032115068
  27    0.0054210222053953
  28    0.0054947302616574
  29     0.022824067856709
  30     0.040521761987119
  31    0.00042480443634318
  32    3.0375054905125e-06
  33    0.0011881217679846
  34    -0.018638065410255
  35    -0.021343381785549
  36      0.00168484967742
  37    0.0005359392736387
  38    0.00070567054529186
  39    -0.0044277666402198
  40    -0.003630854672555
  41    0.0019055783671026
  42    -8.3621280909826e-05
  43    0.00064091417699895
  44    -0.020225306106199
  45    -0.037604905855213
  46    -0.0025402890193393
  47    -0.0020672939171296
  48    -0.011827138106194
  49    -0.019969586522334
  50    -0.037122941140171
  51    -0.0025605846917982
  52    -0.0061723316666744
  53    -0.010461976274861
  54      0.43103543570882
  55      0.16151871308259
  56     0.012830859554646
  57     0.010347976612054
  58     0.028064346427506
 Sym= A
 Ene=               8
 Spin= Alpha
 Occup=    1.00000
   1    -0.010930317929694
   2      0.19891667883013
   3      0.14944172514788
   4      0.36543386559973
   5    1.7879110819883e-07
   6    -3.9423938231771e-07
   7       0.1696541088902
   8    4.195970084884e-08
   9    -2.7588593497042e-07
  10    -0.015975032813287
  11    1.4009489089815e-07
  12    1.5525782017878e-08
  13     0.027669640010998
  14    1.1208099999728e-07
  15    -0.010930263617316
  16      0.19891497052325
  17      0.14944067952002
  18     -0.36543469805641
  19    2.4613368710234e-06
  20    2.6110691536739e-06
  21     -0.16965449491929
  22    1.1677913661795e-06
  23    1.2559358129477e-06
  24    -0.015974990110184
  25    1.2429062352823e-07
  26    -1.2215229512924e-07
  27     0.027669779123411
  28    9.1386010067476e-08
  29    -0.022187232981169
  30    -0.037355729069691
  31    -0.0092051409105698
  32    2.2286679585446e-06
  33    -0.0013855229527169
  34    -0.022192525055298
  35     -0.03735809136416
  36    -0.0092049611601296
  37    0.0011985841049946
  38    0.00069452530932677
  39    -0.022188849533082
  40    -0.037356494337045
  41    -0.0092050854141735
  42    -0.0012008580292424
  43    0.0006909537943763
  44       -0.022188828372
  45    -0.037356749851756
  46    0.0092050865997808
  47    0.0008889402452795
  48    -0.0010627621639652
  49    -0.022188564907899
  50    -0.037356856742133
  51    0.0092050885895993
  52    -0.0013648775085553
  53    -0.00023849315389684
  54    -0.022187933830873
  55    -0.037356110459419
  56    0.0092051107989557
  57    0.00047591304555639
  58    0.0013012463188431
 Sym= A
 Ene=               9
 Spin= Alpha
 Occup=    0.00000
   1      -1.0272538430498
   2      -2.0177636224539
   3       6.5348446961228
   4       0.1077944280143
   5     0.041114385803508
   6     0.028335208116075
   7      0.27476783570612
   8    -0.038339560659169
   9     -0.06281830852605
  10    -0.064284819312145
  11    -0.019321117447753
  12    0.0090425905801352
  13    -0.0038950728667516
  14    -0.044937918737276
  15      0.10217327640958
  16      0.11882953962463
  17      -2.0941595020101
  18      0.21256425578831
  19     0.006755810551169
  20    0.0054398696374375
  21       1.1814667933757
  22     0.028554538661869
  23     0.023721584453491
  24     0.049024564743534
  25    -0.0056805668495061
  26    -0.0025057073091581
  27    -0.072665238696175
  28    -0.0095769321021225
  29      0.10922574351198
  30    -0.027528263776971
  31    -0.049484772958842
  32    -0.0047936767451483
  33    0.0055089500618621
  34      0.12437729325518
  35    -0.015345276170611
  36    -0.051977891097151
  37    -0.0032959710298657
  38    -0.0050709525240045
  39      0.11380263723789
  40     -0.03221845482265
  41    -0.048080435601767
  42     0.004620432557344
  43    -0.0010315638323661
  44     -0.62604721766971
  45     -0.89258331256481
  46    -0.015619206946688
  47    -0.035960020955021
  48     0.062439251229798
  49     -0.67723192708307
  50     -0.88903712931781
  51    -0.023286969830442
  52     0.097432574477835
  53     0.023316461855496
  54     -0.62897845296963
  55     -0.93862971125467
  56    -0.015756718490626
  57    -0.014661391895043
  58    -0.060682288603227
 Sym= A
 Ene=              10
 Spin= Alpha
 Occup=    0.00000
   1      0.11088077966224
   2      0.13245619856601
   3      -2.3085197394227
   4     -0.22137310478067
   5    -0.0087699207061772
   6     0.001050969803174
   7      -1.3245594505106
   8     -0.03170104000604
   9    -0.0034924196397846
  10     0.044235361772118
  11    0.00060637323073231
  12    -0.0048350706703927
  13    -0.075100689433724
  14    -0.013217156296403
  15      -1.0424129879391
  16      -2.0456965527949
  17       6.6798271596124
  18    -0.040805443043707
  19     -0.04411509023561
  20    0.0034710771745941
  21     -0.56765922823942
  22     0.050234973021403
  23       0.0133409793406
  24    0.0075801930602417
  25    0.0077430125733642
  26     0.045257082521454
  27     0.014042324411969
  28    -0.057652516533885
  29     -0.65460149555859
  30     -0.87056964343412
  31     0.042263602433483
  32    -0.0077461530342001
  33     0.076473246657646
  34     -0.66415601855818
  35      -0.8434016185511
  36     0.041336699745769
  37    -0.080036254308512
  38    -0.040757677945994
  39      -0.6105108596484
  40     -0.87582394344354
  41     0.037923143876303
  42     0.042360336555814
  43     -0.02822827931701
  44      0.11733988624803
  45    -0.054329286971694
  46     0.050272325119962
  47    -0.00065498546124434
  48    0.0088236233319217
  49       0.1286171366743
  50    -0.043321887357849
  51     0.054200713172458
  52    0.0091495839589777
  53    -0.00044861017769256
  54      0.12114868389617
  55    -0.056719579075504
  56     0.051871965406146
  57    -0.0037656177795293
  58    -0.0060981102479797
 Sym= A
 Ene=              11
 Spin= Alpha
 Occup=    0.00000
   1    -0.015811279837016
   2    -0.030626796193199
   3       0.1100986254987
   4    -0.012718423174402
   5     0.074502145285896
   6     -0.38741174632507
   7     0.077060179065905
   8    -0.016083597098154
   9       2.9081292213929
  10     -0.29860937199604
  11     -0.75917741164265
  12     -0.27063308432674
  13     -0.16756531074172
  14    -0.021729428544179
  15    0.0025184524221668
  16    0.0026057494186165
  17    -0.079116422589145
  18    0.0075601337666845
  19    -0.0070043985327976
  20     -0.01311580977089
  21     0.050374898025466
  22    -0.099833892138578
  23     -0.68346517483826
  24    0.00095762492574549
  25    -0.040389491978167
  26     0.015636653329396
  27    -0.0026652019070156
  28    -0.013135817558854
  29      0.12085099278735
  30     0.064634684059576
  31     0.070690692983332
  32    -0.0024388513524969
  33    -0.019944139858655
  34    -0.079823271258329
  35     -0.14865629889037
  36    -0.020759164167553
  37    -0.052387459624559
  38     0.044301147165041
  39    -0.032403142905483
  40      0.06356787941191
  41    -0.053071478516494
  42     0.030050330166957
  43     0.054398677283391
  44     -0.73558816327017
  45      -1.1680454448994
  46    -0.031241445532345
  47     -0.19960432136063
  48     0.030708934458924
  49     -0.25699737469817
  50     -0.25570129910155
  51    -0.034376956320238
  52      0.11494291184687
  53     -0.23097259885097
  54      0.97686550233637
  55       1.4267097479332
  56     0.052462190432672
  57      0.18518069374457
  58      0.17484478726931
 Sym= A
 Ene=              12
 Spin= Alpha
 Occup=    0.00000
   1    -0.0070151018337784
   2    -0.013750342479427
   3     0.051524388275466
   4    -0.0063182774522411
   5     -0.38444487297804
   6    -0.086874139317855
   7    -0.006106987576481
   8       2.9040518233195
   9     0.022951920912451
  10     -0.21760842440304
  11     0.039017622075908
  12      0.35966162306317
  13     -0.15665798580014
  14     -0.75929129718673
  15    0.0031740539251626
  16    0.0073104678664458
  17    -0.0072769468827316
  18    -0.0075086026680582
  19    -0.012723212448257
  20    0.0046815175335604
  21    0.0030212181186081
  22     -0.68215883138115
  23     0.092328775039999
  24      0.01028659791476
  25      0.01668054499289
  26    -0.00099856381264027
  27      0.01172011899753
  28    -0.040318091715895
  29    -0.024662687757375
  30     -0.12004083585373
  31     0.017207003146167
  32     0.073320990219404
  33     0.014388423983785
  34    -0.087461189713952
  35    -0.0019209907470112
  36    -0.071704026616233
  37     0.008079950804664
  38    -0.034897357186076
  39      0.11529846748523
  40      0.12234327561431
  41     0.052624742718249
  42    -0.0019378234858848
  43     0.046352622556124
  44      0.71206513448285
  45      0.95950803083424
  46     0.047705111240359
  47    -0.046011399659821
  48      -0.2706110400965
  49      -0.9990553558915
  50      -1.5060682473306
  51    -0.052858413306426
  52      0.21616139210507
  53     0.046636152798459
  54      0.25437301748602
  55      0.51776789970134
  56    -0.0067253772375707
  57     -0.19185593759165
  58      0.10902371893544
 Sym= A
 Ene=              13
 Spin= Alpha
 Occup=    0.00000
   1    -0.041386537784183
   2    -0.0062981253554308
   3       2.5432441378316
   4      0.29780668224224
   5    -0.0037500649213502
   6    0.0018282214569121
   7       1.7069577445456
   8    -0.026110886920681
   9    0.0058268073142381
  10    -0.061252474108714
  11    0.0021834752183854
  12    -0.0024194885944488
  13      0.10527207246899
  14    -0.0046083260493559
  15      0.16379239272663
  16      0.30194084246603
  17      -1.4297463870378
  18     -0.59200693201602
  19    -0.025878613713744
  20       0.0127688751828
  21       3.4537581833403
  22      0.07155142110927
  23    -0.018912630640947
  24      0.20261994132844
  25    0.0082909213856664
  26     0.014245447246246
  27     -0.31906580709361
  28    -0.010310726338117
  29     -0.16647543565479
  30     -0.55955986276677
  31      -0.1617538017001
  32    -0.0073473334839777
  33      0.10125819124185
  34     -0.15346042526745
  35     -0.54270281717246
  36     -0.16376976335187
  37    -0.089617303986938
  38     -0.04208324580193
  39     -0.16017222493422
  40     -0.60165638083157
  41     -0.16448800415819
  42     0.076191753228052
  43    -0.045482409629175
  44    -0.071416471223177
  45      0.29978295985342
  46    -0.018502320076851
  47     0.021538206276165
  48    -0.020749118777013
  49    -0.062406634604061
  50      0.30806364374028
  51    -0.018925194025727
  52     -0.02874272308071
  53    -0.0071888717386066
  54    -0.066659974295654
  55      0.29870400766504
  56    -0.018738957941404
  57     0.010723490914564
  58     0.027584972586763
 Sym= A
 Ene=              14
 Spin= Alpha
 Occup=    0.00000
   1    -0.00021099906656205
   2    -0.0018510819647404
   3    -0.042583004459878
   4    -0.0068297493388073
   5    -0.014067239291871
   6    -0.0057777480379256
   7    -0.029880496595157
   8     -0.68586520175437
   9     -0.10277624936171
  10    0.0086225418246475
  11     0.016150741571783
  12     0.013957302319297
  13      0.00129962244338
  14     0.038405726431933
  15    0.0022555733117152
  16    0.0048329697886697
  17    -0.0077411351592737
  18      0.01140839256139
  19     -0.38758216462139
  20     0.074409998914925
  21     -0.07163888612044
  22       2.9158038764413
  23    0.0075677267519246
  24      0.13583295071663
  25     0.039859995061119
  26     -0.41496550150376
  27     0.093658450767954
  28      0.75299513833065
  29    -0.080531325406219
  30     0.011680053753183
  31     0.023005469426549
  32     -0.24360092274278
  33      0.03673857209995
  34      0.93672020459179
  35        1.339930020347
  36    -0.055482215181256
  37      0.11768302562085
  38      0.23748491065246
  39     -0.83164799703419
  40      -1.2992760075087
  41     0.039969530370389
  42      0.10377481193722
  43     -0.17160043210525
  44    -0.053506704778363
  45     0.041645017302855
  46     0.059687289437816
  47     0.040569880572471
  48     0.037004069850034
  49      0.12175377778175
  50     0.085210305522961
  51      -0.0675704645112
  52    -0.018976101117349
  53    -0.018341075799724
  54    -0.066170336944994
  55     -0.14539813319162
  56    0.0080502007747368
  57     0.058264370726347
  58    -0.043962871017973
 Sym= A
 Ene=              15
 Spin= Alpha
 Occup=    0.00000
   1    -0.00092354063494382
   2    -0.00070193116704256
   3      0.02815876105254
   4    0.0035242039179323
   5    0.0071418354360087
   6    -0.0045304745243515
   7     0.016824155469024
   8      0.10616799641751
   9     -0.65429618635218
  10    -0.014747149281736
  11     0.053991607750642
  12    0.0079825585958201
  13    -0.0066959286663946
  14    -0.014596753774178
  15     0.010132379397702
  16     0.019845033506422
  17    -0.065216850117986
  18    -0.0004141504258326
  19    -0.064693681991136
  20     -0.35543967845906
  21     0.014110623617984
  22     -0.01662376028996
  23       2.8679785513864
  24      0.36896428699171
  25      0.81763713358456
  26      0.14881683488339
  27       0.2092586058063
  28    -0.032676170601464
  29      -1.0335210429836
  30      -1.4985808000715
  31     0.049889628848732
  32     -0.02564891947065
  33      0.24588764682132