[Molden Format]
made by pyscf v[2.0.1]
[Atoms] (AU)
C   1   6     0.00000000000000     0.00000000000000     0.00000000000000
C   2   6     2.89040035821050     0.00000000000000     0.00000000000000
H   3   1     3.65380793584534     0.00000000000000     1.93990930394644
H   4   1     3.65380793584534    -1.68001073825540    -0.96995465197322
H   5   1     3.65380793584534     1.68001073825540    -0.96995465197322
H   6   1    -0.76340757763484     1.68001073825540     0.96995465197322
H   7   1    -0.76340757763484     0.00000000000000    -1.93990930394644
H   8   1    -0.76340757763484    -1.68001073825540     0.96995465197322
[GTO]
1 0
 s    8 1.00
                  6665  0.00069158396281299
                  1000  0.0053257961529341
                   228   0.027060721042034
                 64.71    0.10165684614077
                 21.06     0.2745748236174
                 7.495    0.44829431892377
                 2.797    0.28490261071525
                0.5215   0.015194859206082
 s    8 1.00
                  6665  -0.00029326965268655
                  1000  -0.0023180354739745
                   228  -0.011499786038565
                 64.71  -0.046826727009787
                 21.06   -0.12846616875047
                 7.495   -0.30126627246289
                 2.797   -0.25563070233011
                0.5215      1.093793361012
 s    1 1.00
                0.1596                   1
 p    3 1.00
                 9.439   0.056979251590039
                 2.002    0.31320721150073
                0.5456    0.76037674173753
 p    1 1.00
                0.1517                   1
 d    1 1.00
                  0.55                   1

2 0
 s    8 1.00
                  6665  0.00069158396281299
                  1000  0.0053257961529341
                   228   0.027060721042034
                 64.71    0.10165684614077
                 21.06     0.2745748236174
                 7.495    0.44829431892377
                 2.797    0.28490261071525
                0.5215   0.015194859206082
 s    8 1.00
                  6665  -0.00029326965268655
                  1000  -0.0023180354739745
                   228  -0.011499786038565
                 64.71  -0.046826727009787
                 21.06   -0.12846616875047
                 7.495   -0.30126627246289
                 2.797   -0.25563070233011
                0.5215      1.093793361012
 s    1 1.00
                0.1596                   1
 p    3 1.00
                 9.439   0.056979251590039
                 2.002    0.31320721150073
                0.5456    0.76037674173753
 p    1 1.00
                0.1517                   1
 d    1 1.00
                  0.55                   1

3 0
 s    3 1.00
                 13.01   0.033498726389998
                 1.962    0.23480080117413
                0.4446     0.8136829578829
 s    1 1.00
                 0.122                   1
 p    1 1.00
                 0.727                   1

4 0
 s    3 1.00
                 13.01   0.033498726389998
                 1.962    0.23480080117413
                0.4446     0.8136829578829
 s    1 1.00
                 0.122                   1
 p    1 1.00
                 0.727                   1

5 0
 s    3 1.00
                 13.01   0.033498726389998
                 1.962    0.23480080117413
                0.4446     0.8136829578829
 s    1 1.00
                 0.122                   1
 p    1 1.00
                 0.727                   1

6 0
 s    3 1.00
                 13.01   0.033498726389998
                 1.962    0.23480080117413
                0.4446     0.8136829578829
 s    1 1.00
                 0.122                   1
 p    1 1.00
                 0.727                   1

7 0
 s    3 1.00
                 13.01   0.033498726389998
                 1.962    0.23480080117413
                0.4446     0.8136829578829
 s    1 1.00
                 0.122                   1
 p    1 1.00
                 0.727                   1

8 0
 s    3 1.00
                 13.01   0.033498726389998
                 1.962    0.23480080117413
                0.4446     0.8136829578829
 s    1 1.00
                 0.122                   1
 p    1 1.00
                 0.727                   1

[5d]
[7f]
[9g]

[MO]
 Sym= A
 Ene=               0
 Spin= Alpha
 Occup=    1.00000
   1    -0.00012382033984611
   2    0.00017132866527368
   3    0.0023203108472033
   4    0.00031289678575826
   5    7.6697889734763e-09
   6    -2.3853783777701e-07
   7     0.001190220894494
   8    1.7045160228751e-09
   9    -1.1588920453142e-07
  10    9.7326999262006e-05
  11    1.6391953076216e-08
  12    -5.9215405870673e-10
  13    -0.00016854707211709
  14    4.1395117752978e-09
  15       1.0022666283858
  16    0.0054668845422315
  17    -0.0088529090803454
  18    0.00021475015189168
  19    9.214093348156e-08
  20    1.3754875871821e-07
  21    0.00079286898080747
  22    4.3492001588066e-08
  23    7.0159100355697e-08
  24    8.8880654816274e-05
  25    1.7146794519077e-08
  26    -4.7946587065733e-09
  27    -0.00015392607863757
  28    3.3934777524933e-09
  29    0.00047805270478001
  30    0.0012582308935588
  31    8.8744262500816e-05
  32    2.8159638976533e-09
  33    0.00036968423714089
  34    0.00047777759412841
  35    0.0012580817045699
  36    8.8753929663452e-05
  37    -0.00032016666095002
  38    -0.00018484527112204
  39    0.00047791544726012
  40    0.0012581415561383
  41    8.8749223749953e-05
  42    0.0003201621645191
  43    -0.00018483942351141
  44    -9.4963731327301e-05
  45    0.00012017517829434
  46    4.8734501330089e-05
  47    -1.6490862979409e-05
  48    -9.528621536663e-06
  49    -9.4636883345293e-05
  50    0.00012034209997632
  51    4.8745890820107e-05
  52    6.6442112942651e-11
  53    1.9059672739147e-05
  54    -9.4963386189923e-05
  55    0.00012018789973211
  56    4.8734629624107e-05
  57    1.6489905886171e-05
  58    -9.527992237882e-06
 Sym= A
 Ene=               1
 Spin= Alpha
 Occup=    1.00000
   1       1.0022666188461
   2    0.0054670120122362
   3    -0.0088528152531437
   4    -0.00021455245947483
   5    6.8217623446655e-09
   6    -2.5537600389878e-08
   7    -0.00079277933996615
   8    4.3228337826977e-09
   9    -9.1611084394336e-09
  10    8.8861144497791e-05
  11    -5.7372914382377e-09
  12    9.2562405812495e-10
  13    -0.00015391235321862
  14    -2.7968749107607e-09
  15    -0.00012379664699614
  16    0.00017156206297395
  17    0.0023204686419059
  18    -0.00031304292743966
  19    -5.2108048808511e-08
  20    -1.4030746005267e-07
  21    -0.0011902863041795
  22    -2.4829472521732e-08
  23    -6.5937228682606e-08
  24    9.7300806221872e-05
  25    -4.4976847850501e-09
  26    2.8323914043332e-09
  27    -0.00016854424185079
  28    -2.4583830839692e-09
  29    -9.4908328387707e-05
  30    0.00012017927791127
  31    -4.8741368214577e-05
  32    -1.6129828022924e-09
  33    -1.90541860612e-05
  34    -9.4688385974751e-05
  35    0.00012027388776363
  36    -4.874886824487e-05
  37    1.6512342614109e-05
  38    9.530074142684e-06
  39    -9.4767786950443e-05
  40    0.0001202378811415
  41    -4.8746143512328e-05
  42    -1.6509870844779e-05
  43    9.5267845538858e-06
  44    0.00047791666063181
  45    0.0012581446240072
  46    -8.874390654699e-05
  47    0.00032015914958249
  48    0.00018484326817676
  49    0.00047792578520356
  50    0.0012581285256393
  51    -8.8743780973616e-05
  52    3.0517275531206e-10
  53    -0.00036968528770536
  54    0.00047789965001135
  55    0.0012581300013464
  56    -8.8744554314416e-05
  57    -0.00032015914696977
  58    0.00018484361905146
 Sym= A
 Ene=               2
 Spin= Alpha
 Occup=    1.00000
   1    -0.0024549331006752
   2    -0.020537853606465
   3     -0.01448785312538
   4    -0.025113171579289
   5    -1.2510929771961e-07
   6    0.0016709620560928
   7    -0.014632936550186
   8    -1.6547295663909e-08
   9    -0.0064492964024857
  10    0.00095803525351216
  11      0.01664546195662
  12    1.5483722649152e-08
  13    0.0056570305454265
  14    -9.350661693681e-08
  15    -0.013343117165119
  16      0.18317975786777
  17       0.1096071064164
  18       0.1244075028213
  19    -2.0406573592664e-06
  20       0.3458509923532
  21     0.061176025656809
  22    -9.6416007923906e-07
  23       0.1638149772098
  24     0.019502045550332
  25     0.014047913755441
  26    1.0667277039641e-07
  27    0.0028025074056601
  28    -7.731862303006e-08
  29       0.4310602410251
  30      0.16160966787477
  31    -0.012878729210773
  32    -6.2447671608772e-08
  33    -0.029861088671221
  34    -0.020080904694865
  35    -0.037488421456881
  36    0.0025518483560064
  37    0.0021971224191613
  38     0.011888041535099
  39    -0.020083963527524
  40    -0.037489755656321
  41    0.0025519528328315
  42    -0.0021970231211756
  43     0.011887912097021
  44    -0.012312689734186
  45    -0.013715923085031
  46    -0.0019332400761957
  47    -0.00034428889756232
  48    -0.00078228199124023
  49     0.024197175592726
  50     0.043269511920427
  51    -0.00030567220433793
  52    -9.6899142752363e-11
  53    -0.0013024334774442
  54     -0.01231276481699
  55    -0.013716234620156
  56    -0.0019332452244603
  57    0.00034430793415989
  58    -0.00078229309391451
 Sym= A
 Ene=               3
 Spin= Alpha
 Occup=    1.00000
   1    -0.013342903636304
   2      0.18318053977569
   3      0.10960758205649
   4     -0.12440784448437
   5      0.29951456507391
   6      0.17292625049928
   7    -0.061176179873542
   8      0.14186739279595
   9     0.081907862803075
  10    -0.0042580524092558
  11    -0.007024026543331
  12     0.015840003416676
  13    -0.010915454743343
  14    -0.012165848490913
  15    -0.0024547112834857
  16    -0.020538992608957
  17    -0.014488546256077
  18     0.025112577161589
  19    0.0014461329045081
  20    0.00083467711699425
  21     0.014632651826312
  22    -0.0055856858916214
  23    -0.0032250448541291
  24    -0.0037941754503937
  25    -0.0083228002732708
  26     0.003168130698215
  27    0.0029134050548446
  28     -0.01441537520351
  29    -0.012314228650061
  30    -0.013716615209361
  31    0.0019332896956432
  32    -0.00050535907879881
  33    -0.00068919649882456
  34     0.024197456783442
  35     0.043269771641268
  36    0.00030565819273428
  37    -0.0011279640364804
  38    -0.00065124059581475
  39     -0.01231374426229
  40    -0.013716231617548
  41    0.0019332715540325
  42    -0.00084955254917607
  43    -9.3059263122571e-05
  44       0.4310602560636
  45      0.16160963746167
  46      0.01287873095376
  47    -0.025860501391867
  48    -0.014930522887225
  49    -0.020082666341147
  50    -0.037489388832535
  51    -0.0025519087985622
  52     0.009196719054434
  53    0.0078467359464144
  54    -0.020080764985657
  55    -0.037488519582606
  56    -0.0025518434863206
  57     0.011393929425792
  58    0.0040412127751175
 Sym= A
 Ene=               4
 Spin= Alpha
 Occup=    1.00000
   1    -0.013342827670614
   2       0.1831787081643
   3      0.10960616662377
   4      -0.1244118657576
   5     -0.29951661923026
   6      0.17292210933112
   7    -0.061178087928393
   8     -0.14186828555078
   9     0.081905948724393
  10    -0.0042577511609613
  11    -0.007023967785956
  12    -0.015840070547943
  13    -0.010915587574904
  14     0.012165746779621
  15    -0.0024547458229422
  16    -0.020538747124431
  17    -0.014488696429349
  18     0.025117610834466
  19    -0.0014499740256624
  20    0.00083239229509362
  21      0.01463503443287
  22     0.005583909133523
  23    -0.003226040606866
  24    -0.0037940486469084
  25    -0.008322693484919
  26    -0.0031679496103418
  27    0.0029130332412412
  28     0.014415317556393
  29    -0.012314138992251
  30    -0.013716318083665
  31    0.0019334037259026
  32    0.00050524487205779
  33    -0.0006892527430931
  34    -0.012308374875501
  35    -0.013714231446148
  36    0.0019332108104723
  37    0.00084987304980251
  38    -9.2870860012079e-05
  39     0.024197303470907
  40     0.043269612320804
  41    0.0003057837699291
  42    0.0011278420277566
  43    -0.0006512986666427
  44    -0.020083342138686
  45    -0.037489027809537
  46    -0.0025520436111373
  47    -0.011393746517145
  48    0.0040412277338852
  49    -0.020078795369028
  50    -0.037487580445866
  51    -0.0025518932787904
  52    -0.0091967750957672
  53    0.0078469335558926
  54      0.43106027806193
  55       0.1616097534638
  56     0.012878614883313
  57     0.025860442101367
  58    -0.014930644010386
 Sym= A
 Ene=               5
 Spin= Alpha
 Occup=    1.00000
   1    -0.0024552580739325
   2    -0.020540866521522
   3    -0.014489922070784
   4    -0.025115619669831
   5    -0.0014415772590062
   6    -0.00083768334252972
   7    -0.014634064784927
   8    0.0055878213121843
   9    0.0032236492294235
  10    -0.0037939211151606
  11    -0.008322743481382
  12    0.0031683600377915
  13    0.0029132532217046
  14    -0.014415508551686
  15      -0.0133425197605
  16      0.18317913252068
  17       0.1096064767841
  18      0.12441111248985
  19     -0.29951347336077
  20     -0.17292761658761
  21     0.061177700185664
  22     -0.14186697096672
  23     -0.08190844705946
  24    -0.0042579442074769
  25    -0.0070239370706395
  26     0.015839994975669
  27    -0.010915721656212
  28    -0.012166024050192
  29    -0.020083252867317
  30    -0.037489222208201
  31    0.0025520129382521
  32    -0.009196693885401
  33    -0.0078466772422529
  34      0.43106058766166
  35      0.16161016525398
  36    -0.012878657809106
  37     0.025860514942678
  38     0.014930479739122
  39    -0.020079376807576
  40    -0.037488146473901
  41    0.0025518862474287
  42    -0.011394024689336
  43    -0.004041179683655
  44     0.024199643525072
  45      0.04327098221053
  46    -0.00030566861499603
  47    0.0011279674948968
  48    0.00065107313818231
  49    -0.012311633518498
  50    -0.013715311152417
  51    -0.0019332869534932
  52    0.00050549699825808
  53    0.00068930516873005
  54     -0.01231828123658
  55    -0.013717842386698
  56    -0.0019335105975683
  57    0.00084932223939871
  58    9.3182033858604e-05
 Sym= A
 Ene=               6
 Spin= Alpha
 Occup=    1.00000
   1    -0.013342837941421
   2      0.18317840615056
   3      0.10960625525043
   4     -0.12440722397504
   5    2.5687800940571e-06
   6     -0.34585201314955
   7    -0.061175878539234
   8    1.1743330841197e-06
   9     -0.16381551637205
  10     0.019502113204403
  11     0.014048083681218
  12    1.1391795580319e-07
  13    0.0028025557901583
  14    -6.4954703399111e-09
  15    -0.0024554421323864
  16    -0.020537844965373
  17    -0.014487865350933
  18     0.025113557252906
  19    2.0370666351622e-06
  20    -0.0016683087570342
  21     0.014633099680066
  22    9.1129689264807e-07
  23    0.0064505747983132
  24    0.00095820176132668
  25     0.016645619680275
  26    -8.0010035113374e-08
  27    0.0056570451824264
  28    -4.0921810194217e-08
  29     0.024199681410332
  30     0.043270679926096
  31    0.00030559089319581
  32    5.7851888392862e-08
  33    0.0013023153583467
  34    -0.012315167042763
  35    -0.013717040989043
  36    0.0019333300090935
  37    0.00034416588299535
  38    0.00078226099178186
  39    -0.012312429286363
  40    -0.013716181969637
  41     0.001933239604856
  42    -0.00034428057225044
  43    0.00078239400926061
  44     -0.02008192497031
  45    -0.037488897941574
  46    -0.0025518874855504
  47    -0.0021970308828026
  48    -0.011888032248793
  49       0.4310605752825
  50      0.16161023361879
  51     0.012878740529969
  52    7.5159073625006e-08
  53     0.029861029821977
  54    -0.020085532631811
  55    -0.037490213780227
  56    -0.0025520083192704
  57    0.0021968939147749
  58    -0.011887866384042
 Sym= A
 Ene=               7
 Spin= Alpha
 Occup=    1.00000
   1    -0.0024551917517288
   2    -0.020538792704383
   3    -0.014488542044162
   4     -0.02511468114547
   5    0.0014452897926684
   6    -0.00083311041186087
   7    -0.014633629076985
   8    -0.0055861502531265
   9    0.0032257154484279
  10    -0.0037941138733821
  11    -0.0083226989005516
  12    -0.0031682089272499
  13    0.0029132066674962
  14     0.014415559519134
  15    -0.013342792909972
  16      0.18317852283934
  17      0.10960622908726
  18      0.12440886698611
  19      0.29951766633946
  20     -0.17292282844275
  21     0.061176651010091
  22      0.14186887969974
  23    -0.081906274374981
  24    -0.0042578728983076
  25    -0.0070239624590438
  26    -0.015840176724693
  27     -0.01091543729721
  28     0.012166015927996
  29    -0.020080449758584
  30    -0.037488221687383
  31    0.0025518742882918
  32    0.0091968158551456
  33    -0.0078467946712318
  34    -0.020085229908744
  35    -0.037490176472221
  36    0.0025520363512213
  37     0.011393667893762
  38    -0.0040413174284038
  39      0.43106057323756
  40      0.16161020811367
  41    -0.012878702738294
  42    -0.025860384185707
  43     0.014930613336351
  44    -0.012313248838146
  45    -0.013716418794672
  46    -0.0019333031379202
  47    -0.00084965775611983
  48    9.3058598112262e-05
  49    -0.012314559389126
  50    -0.013716551565077
  51    -0.001933343833467
  52    -0.0005053906669188
  53    0.00068919081412377
  54     0.024199623274279
  55     0.043270745716729
  56    -0.00030562869289398
  57    -0.0011278378861532
  58    0.00065119136431697
 Sym= A
 Ene=               8
 Spin= Alpha
 Occup=    1.00000
   1     0.010945399892616
   2     -0.19885625676583
   3      -0.1495463050359
   4     -0.36548192643785
   5    2.8774971777636e-06
   6    -1.2489188788398e-06
   7      -0.1696428772893
   8    1.337040297173e-06
   9    -6.3868914259825e-07
  10     0.015940131335971
  11    1.5951391106448e-07
  12    1.3877234989818e-07
  13    -0.027608936481888
  14    -5.7076989584578e-08
  15     0.010944805022153
  16      -0.1988566811046
  17     -0.14954655465423
  18      0.36548172087495
  19    1.251370488042e-06
  20    2.2450106060719e-06
  21      0.16964277986496
  22    5.326029344132e-07
  23    1.0897416541132e-06
  24     0.015940155525119
  25    1.5206863600429e-07
  26    -3.5072559633814e-08
  27    -0.027608894498351
  28    -8.7938156219756e-08
  29     0.022182494728252
  30     0.037396217212153
  31    0.0091936144895878
  32    3.3153130825959e-08
  33    0.0013744565061693
  34     0.022178668341046
  35     0.037394575592058
  36    0.0091937449291713
  37    -0.0011905022750463
  38    -0.0006872847035969
  39     0.022180182280832
  40     0.037394851867767
  41    0.0091936967789209
  42    0.0011904235444746
  43    -0.00068720096654214
  44     0.022182178605973
  45     0.037395735662931
  46    -0.009193628913549
  47    0.0011903302292851
  48    0.00068714529760839
  49      0.02218197239885
  50     0.037395995132864
  51    -0.0091936327183937
  52    8.6083285944138e-08
  53    -0.0013744712835963
  54     0.022178004255997
  55     0.037394062307732
  56    -0.0091937701255655
  57    -0.0011904770945015
  58    0.00068732949069706
 Sym= A
 Ene=               9
 Spin= Alpha
 Occup=    0.00000
   1     -0.98051213515079
   2      -1.9291559921937
   3       6.1699073968915
   4      0.19852972735014
   5     0.021755619232597
   6    -0.0090859826678562
   7     -0.22796836901374
   8    -0.035598533255169
   9    -0.026048029564083
  10      0.03007033061466
  11     0.014001799715494
  12    0.0041882838201211
  13     0.014132844965251
  14    -0.042726087057078
  15     0.089540207982645
  16      0.10663880739053
  17      -1.6566693025581
  18      0.17313289522797
  19    0.0066467618835804
  20    -0.0010370597746609
  21      0.91540145807885
  22     0.020923818645709
  23    0.0019953816897371
  24     0.035647376877702
  25    0.00090243535749616
  26    -0.0017106525353714
  27    -0.067264838990002
  28    -0.010470438438343
  29     0.099226038287306
  30     0.013073269293327
  31     -0.04477916839309
  32    -0.0011976115274723
  33    0.0012901726288792
  34      0.10096168022863
  35     0.015841760221236
  36    -0.044030177073254
  37    -0.0023071434254799
  38    -0.0015341221698713
  39     0.094203998535689
  40    0.0078781096485856
  41    -0.041461731653165
  42    -6.9945582670289e-05
  43    -0.0015446440551264
  44      -0.6431661396786
  45     -0.94450693831341
  46     0.015254322006801
  47     0.081932053820777
  48     0.044348830026651
  49     -0.67198050743851
  50     -0.98025109198053
  51    0.0047570699555263
  52    -0.00050855341815695
  53     -0.09726068944742
  54      -0.6258869905171
  55     -0.96912555425236
  56    0.0091521361189106
  57    -0.065363151727134
  58     0.034194953531575
 Sym= A
 Ene=              10
 Spin= Alpha
 Occup=    0.00000
   1     0.079541358538887
   2     0.093538807413884
   3      -1.3815550869445
   4      -0.1535297330481
   5    0.0018642831824226
   6      -0.0091771562336
   7     -0.73656460357108
   8    0.0076468874373086
   9    -0.033948158110135
  10     0.040797895875262
  11    -0.012147031504718
  12    0.0010493076588414
  13     -0.05825215078948
  14    0.0024963453561351
  15      -0.9393635268038
  16      -1.8501992198937
  17       5.8626894662574
  18     -0.26012692575265
  19    0.0093465335286706
  20    -0.047438435032613
  21      0.53888386418742
  22    -0.017338478090275
  23     0.064749683457788
  24    -0.042093948189173
  25    -0.051738349008722
  26    -0.0067736847091638
  27    -0.022654339264367
  28    0.0094314864378252
  29     -0.60862617089678
  30      -1.0141852457276
  31    -0.033487379995467
  32    0.0019397283962423
  33     0.070790868170081
  34     -0.64669636647474
  35     -0.98215325727382
  36     -0.02938558902374
  37    -0.081897299939272
  38    -0.058653843975953
  39     -0.65185593458059
  40     -0.96912481662655
  41    -0.029246356652771
  42     0.088352472750384
  43    -0.060141146977174
  44     0.091431410291691
  45     0.042225633028825
  46     0.040781981674336
  47    -0.0017524188073542
  48    0.00077287411093948
  49     0.080361498435021
  50     0.034066217860513
  51      0.03819537510693
  52    -0.00043868260788406
  53    0.0017873376195692
  54     0.094397568826486
  55     0.044362174248246
  56     0.041192587486155
  57    0.0013292414698754
  58    0.00051067436437198
 Sym= A
 Ene=              11
 Spin= Alpha
 Occup=    0.00000
   1    -0.0019872311922806
   2    -0.0036676995208418
   3     0.019731459600094
   4    -0.0094500228548755
   5     -0.30802610291624
   6     0.013748982249476
   7     0.035881323324024
   8       2.8263752038669
   9    -0.058453746030417
  10    0.00025961475963697
  11     0.009151190184927
  12      0.50544068195997
  13    -0.0072407005663483
  14     -0.87390721789246
  15    0.0014619976391545
  16     0.002660387153076
  17     -0.02620688722872
  18    -0.00013890162367857
  19    0.0083761104478042
  20    0.0010410029071381
  21     0.017447765746046
  22     -0.55538742275029
  23     0.014499511053277
  24    0.00052795466157705
  25    -0.00023897188520469
  26    -0.014635186018244
  27    0.0012532481788574
  28    -0.059528613764224
  29    -0.0020885371370503
  30    -0.0037256064412381
  31    -0.0016153019747474
  32     0.068998962331689
  33    0.00067123720181265
  34    -0.072817821505943
  35     0.014606400104924
  36    -0.076303226223167
  37    0.0064981741318198
  38    -0.037435790522261
  39      0.07753153782507
  40    -0.020800374821308
  41     0.076932022067046
  42    0.0056046553617674
  43     0.035249878884737
  44     -0.93809593842701
  45      -1.2688880009421
  46    -0.054642455457243
  47      0.14393768336324
  48      0.22256065525351
  49    -0.013985767936959
  50    -0.024442039357567
  51    -0.0029437704418811
  52     -0.22988048156943
  53    -0.00052012328097933
  54      0.94957120496908
  55       1.3081897407265
  56     0.047509318612531
  57      0.15138191606516
  58     -0.21338579854117
 Sym= A
 Ene=              12
 Spin= Alpha
 Occup=    0.00000
   1    -0.012827814079496
   2     -0.01649365720848
   3      0.34982156732193
   4     0.026004778640179
   5    -0.00070403012959422
   6    0.0098202451719428
   7      0.22584352585827
   8    0.0060927728144532
   9     -0.54668108377116
  10    -0.015744655972215
  11     0.061963575485769
  12    -0.00032718291743643
  13    -0.0005034033994276
  14    -0.0017841599440349
  15     0.059478611271495
  16       0.1146012903839
  17      -0.4322876747102
  18    -0.072171001316157
  19    0.0026039921480498
  20     -0.30469360434965
  21      0.37465642122867
  22    -0.037156539382783
  23       2.7956364069782
  24      0.42322599326233
  25      0.87733071819227
  26    0.0072137121963834
  27      0.24829452975136
  28    -0.016232095804283
  29      -1.0587331033712
  30      -1.4917658128663
  31      0.03055535984324
  32    0.0033992427052945
  33      0.27655352650462
  34      0.54472988156209
  35      0.69922242532819
  36    -0.052469781081424
  37      0.21077318976578
  38     -0.11095932855679
  39      0.57288631159681
  40       0.7337605157645
  41     -0.05327867624608
  42     -0.21630699641737
  43        -0.10383937054
  44     0.029812955601182
  45     0.023666820301208
  46    -0.047296281585377
  47    -0.039100655489945
  48     0.045972130646139
  49    -0.098199066372928
  50     0.055091167635002
  51     0.083536829282158
  52    -0.00087375996434793
  53    -0.011872183550961
  54     0.031396408494142
  55     0.022459979913618
  56    -0.049701985985779
  57     0.039151520852459
  58     0.044933576091921
 Sym= A
 Ene=              13
 Spin= Alpha
 Occup=    0.00000
   1    -0.094414129501869
   2     -0.10438186627734
   3       2.9964027787247
   4      0.26468037934926
   5    -4.7617856613572e-05
   6    -0.0035437244639604
   7       1.9425679776429
   8    0.00041548167600393
   9     0.056730154344609
  10    -0.043165629521601
  11    -0.011005903107655
  12     -1.9798118076e-05
  13     0.079442239474323
  14    -0.00012162458990802
  15      0.47434362472025
  16      0.91248677011643
  17      -3.4506992144405
  18     -0.59562639980258
  19    0.00018573874559837
  20     0.027651868517068
  21        3.292635656615
  22    -0.0025198547335142
  23      -0.3160151781364
  24    0.0038595152529286
  25     -0.11848942008384
  26    0.00046062680992971
  27     -0.12718372504113
  28    -0.0010995177147586
  29      0.24019244316193
  30    -0.058823558866331
  31     -0.20267320824535
  32    0.00023625833665445
  33     0.016469843389385
  34     0.042948639372868
  35     -0.31213003823775
  36     -0.19446110066129
  37    -0.073183183779648
  38    -0.015296967382289
  39     0.044836364472897
  40     -0.30978891180606
  41     -0.19450763273766
  42     0.072818855317073
  43    -0.014813970114957
  44     -0.10584829752069
  45      0.29579453867246
  46    -0.030134231081238
  47    -0.021898547603243
  48    -0.020192957205263
  49    -0.092833285218721
  50      0.28950927331975
  51    -0.046554529380142
  52    -5.9023291712512e-05
  53     0.032393217622633
  54     -0.10573949976619
  55      0.29571546544123
  56    -0.030296737122673
  57     0.021902781539106
  58    -0.020263664275032
 Sym= A
 Ene=              14
 Spin= Alpha
 Occup=    0.00000
   1    -0.044254043379893
   2     -0.08514363736988
   3      0.32178135179802
   4    -0.055327874452461
   5     0.011435958074122
   6     -0.29999792971097
   7      0.30546388285525
   8     0.027644780731484
   9       2.8107958647433
  10     -0.45166915733109
  11     -0.87508650360622
  12     0.023068108898967
  13      -0.2491547042346
  14    -0.038576257984075
  15    0.0088150298588382
  16    0.0097957062273459
  17     -0.27840643715418
  18     0.024489859017262
  19    0.0039512450624451
  20    0.0091746602093813
  21      0.18045126572792
  22    0.0030611851286239
  23     -0.55006992788155
  24     0.017870365336949
  25    -0.060060518934737
  26    -0.0022852135804182
  27    0.00069178281135501
  28    -0.0064553340106408
  29     0.094762978973869
  30    -0.048169730257578
  31     0.085060011287495
  32    0.00062322648674629
  33    -0.011942556893838
  34    -0.031975004513683
  35    -0.014238871520711
  36    -0.049619418288863
  37    -0.038894344302516
  38     0.045893147351553
  39     -0.03445388812564
  40    -0.019350748145168
  41    -0.045410407731883
  42     0.038230400006011
  43     0.046996101926937
  44      -0.5817748462222
  45     -0.73494000436175
  46    -0.049543689098298
  47      0.22278914019241
  48    -0.096948816062585
  49       1.0814752887427
  50       1.5015939307858
  51     0.042054436615985
  52    -0.0015767895829002
  53      0.28070280654592
  54     -0.53081799078974
  55     -0.70425740905558
  56    -0.047564699243836
  57     -0.20385546194851
  58     -0.10970106691243
 Sym= A
 Ene=              15
 Spin= Alpha
 Occup=    0.00000
   1    -0.00060569552650389
   2    -0.0016416299223788
   3    -0.00024172444672042
   4    -0.0022797678215307
   5    0.0093401032555706
   6    0.00082689884135148
   7    0.00016874438907077
   8     -0.55186720537602
   9    -0.0055049855677618
  10    0.00019790683816364
  11    0.0018289507517476
  12     0.017635889008024
  13    -0.0016004668747499
  14     0.059679869293016
  15    -0.0015769736356322
  16    -0.0031468887435591
  17     0.007220735304194
  18    -0.0035401664998255
  19     -0.29447359546756
  20    -0.0010854356131356
  21    0.0049876965337598
  22       2.8254540871125
  23     0.036147605150908
  24    0.0054954392956688
  25     0.016722320581735
  26     -0.53800793419995
  27      0.01113496876925
  28      0.87939053107781
  29    -0.017379802243274
  30    -0.021672613850045
  31    -0.00047530350882861