[Molden Format]
made by pyscf v[2.0.1]
[Atoms] (AU)
C   1   6     0.00000000000000     0.00000000000000     0.00000000000000
C   2   6     2.88195139270757     0.00000000000000     0.00000000000000
H   3   1     3.63065534584939     0.00000000000000     1.92469232395612
H   4   1     3.63065534584939    -1.66683244701491    -0.96234616197806
H   5   1     3.63065534584939     1.66683244701491    -0.96234616197806
H   6   1    -0.74870395314182    -0.33421931462451    -1.89545192279507
H   7   1    -0.74870395314182     1.80861917410484     0.65828354449729
H   8   1    -0.74870395314182    -1.47439985948033     1.23716837829778
[GTO]
1 0
 s    8 1.00
                  6665  0.00069158396281299
                  1000  0.0053257961529341
                   228   0.027060721042034
                 64.71    0.10165684614077
                 21.06     0.2745748236174
                 7.495    0.44829431892377
                 2.797    0.28490261071525
                0.5215   0.015194859206082
 s    8 1.00
                  6665  -0.00029326965268655
                  1000  -0.0023180354739745
                   228  -0.011499786038565
                 64.71  -0.046826727009787
                 21.06   -0.12846616875047
                 7.495   -0.30126627246289
                 2.797   -0.25563070233011
                0.5215      1.093793361012
 s    1 1.00
                0.1596                   1
 p    3 1.00
                 9.439   0.056979251590039
                 2.002    0.31320721150073
                0.5456    0.76037674173753
 p    1 1.00
                0.1517                   1
 d    1 1.00
                  0.55                   1

2 0
 s    8 1.00
                  6665  0.00069158396281299
                  1000  0.0053257961529341
                   228   0.027060721042034
                 64.71    0.10165684614077
                 21.06     0.2745748236174
                 7.495    0.44829431892377
                 2.797    0.28490261071525
                0.5215   0.015194859206082
 s    8 1.00
                  6665  -0.00029326965268655
                  1000  -0.0023180354739745
                   228  -0.011499786038565
                 64.71  -0.046826727009787
                 21.06   -0.12846616875047
                 7.495   -0.30126627246289
                 2.797   -0.25563070233011
                0.5215      1.093793361012
 s    1 1.00
                0.1596                   1
 p    3 1.00
                 9.439   0.056979251590039
                 2.002    0.31320721150073
                0.5456    0.76037674173753
 p    1 1.00
                0.1517                   1
 d    1 1.00
                  0.55                   1

3 0
 s    3 1.00
                 13.01   0.033498726389998
                 1.962    0.23480080117413
                0.4446     0.8136829578829
 s    1 1.00
                 0.122                   1
 p    1 1.00
                 0.727                   1

4 0
 s    3 1.00
                 13.01   0.033498726389998
                 1.962    0.23480080117413
                0.4446     0.8136829578829
 s    1 1.00
                 0.122                   1
 p    1 1.00
                 0.727                   1

5 0
 s    3 1.00
                 13.01   0.033498726389998
                 1.962    0.23480080117413
                0.4446     0.8136829578829
 s    1 1.00
                 0.122                   1
 p    1 1.00
                 0.727                   1

6 0
 s    3 1.00
                 13.01   0.033498726389998
                 1.962    0.23480080117413
                0.4446     0.8136829578829
 s    1 1.00
                 0.122                   1
 p    1 1.00
                 0.727                   1

7 0
 s    3 1.00
                 13.01   0.033498726389998
                 1.962    0.23480080117413
                0.4446     0.8136829578829
 s    1 1.00
                 0.122                   1
 p    1 1.00
                 0.727                   1

8 0
 s    3 1.00
                 13.01   0.033498726389998
                 1.962    0.23480080117413
                0.4446     0.8136829578829
 s    1 1.00
                 0.122                   1
 p    1 1.00
                 0.727                   1

[5d]
[7f]
[9g]

[MO]
 Sym= A
 Ene=               0
 Spin= Alpha
 Occup=    1.00000
   1    -1.1343505304375e-05
   2    -0.00043928524304071
   3    0.0018458644238113
   4    -0.0011408237255363
   5    2.7823320126349e-08
   6    6.0942203747243e-08
   7    0.00058919449699499
   8    1.1588911234331e-08
   9    3.1553923162522e-08
  10    0.00024974297236628
  11    -1.0178530135593e-08
  12    -1.0672202180519e-09
  13    -0.00043257757743865
  14    4.2123324195669e-10
  15       1.0026234133445
  16    -0.00041215290665732
  17    -0.012707833039637
  18    -0.00096754350866792
  19    3.2789120318666e-08
  20    -1.5800679701861e-07
  21    0.00015374890447439
  22    1.4500465601479e-08
  23    -7.4826464454815e-08
  24    9.0362747253854e-05
  25    -9.4066763336468e-09
  26    -1.7280089264511e-09
  27    -0.00015653092480325
  28    -1.5815342193614e-11
  29    -0.0029106469047706
  30    0.00073760974970203
  31    0.00021450971360458
  32    3.160099365069e-07
  33    0.0007940247545937
  34    -0.0029104570862594
  35    0.00073770167415675
  36    0.00021450320530076
  37    -0.0006877934032363
  38    -0.00039673950473569
  39    -0.0029104108290189
  40    0.0007377183412172
  41    0.0002145015639437
  42    0.00068747663712437
  43    -0.00039728307934248
  44    3.5045017636654e-05
  45    0.00019273773669705
  46    3.6320965315075e-05
  47    4.718939160898e-06
  48    1.0406685614358e-05
  49    3.515535053375e-05
  50    0.00019280026216291
  51    3.6324976066082e-05
  52    -1.1376176593408e-05
  53    -1.1167558701841e-06
  54    3.5137186160338e-05
  55    0.00019279952780617
  56    3.6324207345027e-05
  57    6.6565939177894e-06
  58    -9.2896402707157e-06
 Sym= A
 Ene=               1
 Spin= Alpha
 Occup=    1.00000
   1       1.0026234095217
   2    -0.00041208232499125
   3    -0.012707769265107
   4    0.00096781588581346
   5    -4.1720214838702e-08
   6    9.3763055159687e-08
   7    -0.00015362297443548
   8    -1.987387165016e-08
   9    4.4060634085984e-08
  10    9.0354310713744e-05
  11    -4.728054028272e-09
  12    -4.579749028621e-09
  13    -0.0001565050448169
  14    2.5607550811825e-09
  15    -1.1350867809989e-05
  16    -0.00043903684022806
  17    0.0018460315965871
  18    0.0011406382963398
  19    1.7666648621583e-08
  20    -1.8720740782438e-08
  21    -0.00058927906112822
  22    8.6833667744372e-09
  23    -1.0871364042244e-08
  24    0.00024973765783054
  25    -5.3119916872281e-09
  26    -1.6120588287228e-09
  27    -0.00043256195364774
  28    2.7745438781459e-09
  29    3.5151710313872e-05
  30    0.00019275169455529
  31    -3.6330948284251e-05
  32    2.8403655611725e-06
  33    -1.107971503561e-05
  34    3.5170297576304e-05
  35    0.00019276747999782
  36    -3.6331522228631e-05
  37    8.1760969792931e-06
  38    7.9983956851025e-06
  39    3.5202462622322e-05
  40    0.0001927877749675
  41    -3.6332777547479e-05
  42    -1.1016357817948e-05
  43    3.080890658973e-06
  44    -0.0029106330154988
  45    0.00073761169697432
  46    -0.00021450249428455
  47    -0.00013757259843054
  48    -0.00078201660370897
  49    -0.0029105646005143
  50    0.00073764204084247
  51    -0.00021450012223071
  52    0.00074602774891638
  53    0.00027187056740585
  54    -0.0029104756844032
  55    0.00073768361099716
  56    -0.00021449710082032
  57    -0.00060845457722756
  58    0.0005101446019903
 Sym= A
 Ene=               2
 Spin= Alpha
 Occup=    1.00000
   1    -0.0024755669847607
   2    -0.020005361353587
   3     -0.01255650751626
   4    -0.024151505933943
   5    0.00042447056975767
   6    0.0012170665092814
   7    -0.013697345007645
   8    0.0017944528457449
   9     -0.00666472012876
  10    0.00065799828885448
  11     0.016827027009541
  12    0.00097061753868709
  13    0.0057070534960033
  14    0.00011331613588526
  15    -0.0050220480711445
  16      0.18333846321141
  17      0.10566069142458
  18      0.12357592187748
  19    0.00055564620577461
  20      0.34696036330269
  21     0.061001602242315
  22    9.4024881815235e-05
  23      0.16181098412008
  24     0.019557363969014
  25     0.014061965213767
  26    0.00023140297269837
  27    0.0028296923719957
  28    3.5559898135518e-05
  29      0.43308588642009
  30      0.16025710698326
  31    -0.012844084381228
  32    7.5683664322158e-05
  33    -0.030059656018948
  34      -0.0197287114912
  35    -0.037280955766354
  36    0.0025706463838543
  37    0.0021905566376317
  38     0.012030378005639
  39     -0.01950288506662
  40    -0.036940539539472
  41    0.0025817960506759
  42    -0.002261668789173
  43     0.012103156467399
  44     0.023720301945572
  45     0.042641919184318
  46    -0.00034152136834579
  47    -0.00022131754385012
  48    -0.0013175483640461
  49    -0.0088172192159525
  50    -0.0091523413841751
  51    -0.0019679500121131
  52    -0.00034884182035662
  53    -0.00071665455936077
  54    -0.016006817818601
  55    -0.018171283901388
  56    -0.0018147920587034
  57    0.00032830098200004
  58    -0.00085279977151021
 Sym= A
 Ene=               3
 Spin= Alpha
 Occup=    1.00000
   1    -0.0050222184327683
   2      0.18333741883229
   3      0.10565993747785
   4     -0.12357747445154
   5      0.32584746577899
   6      0.11918611326956
   7    -0.061002321907093
   8      0.15202109307057
   9     0.055429373579578
  10    -0.0083819577429203
  11    -0.0048427829958426
  12     0.011973872933293
  13    -0.013301233099925
  14    -0.013201840534057
  15    -0.0024754761083821
  16    -0.020006021220869
  17    -0.012557041787004
  18     0.024153245951043
  19    0.00099808650848373
  20    0.00081445610198538
  21     0.013698154317617
  22    -0.0068767291544708
  23    -0.00059347181813691
  24    -0.0040374520868269
  25    -0.005861524331321
  26    0.0029440800708639
  27    0.0029959574211653
  28      -0.0157735630871
  29    -0.0088173177591479
  30    -0.0091520300471731
  31    0.0019679989066464
  32    -0.00055413985962568
  33    -0.00057288328612102
  34     0.023721107011852
  35     0.042642333496604
  36    0.0003415375407717
  37    -0.0011623577990931
  38    -0.00065858280936567
  39    -0.016006808604615
  40    -0.018171432067913
  41    0.0018148410421762
  42    -0.00091368414945018
  43    1.6819666652191e-05
  44    -0.019726024955139
  45    -0.037279689375559
  46    -0.0025706000176945
  47     0.010555725421241
  48     0.006173186821455
  49      0.43308604711755
  50      0.16025738069451
  51     0.012844045336349
  52    -0.028272669360666
  53    -0.010209991885085
  54    -0.019505761047797
  55    -0.036941636312549
  56    -0.0025819395655167
  57     0.012146627536456
  58    0.0020143122689437
 Sym= A
 Ene=               4
 Spin= Alpha
 Occup=    1.00000
   1    -0.0024756743607805
   2    -0.020004583965419
   3    -0.012556000147675
   4     -0.02415118030398
   5    0.00084016300856866
   6    -0.00097868867312234
   7    -0.013697204250714
   8    -0.0066698014174291
   9    0.0017771084623297
  10    -0.0030609994586695
  11    -0.0085115028698132
  12    -0.0034500446008011
  13    0.0035599342462282
  14     0.014516061168284
  15    -0.0050225776271257
  16      0.18333881739629
  17      0.10566095896895
  18      0.12357539022798
  19      0.30019909219465
  20     -0.17396053533851
  21     0.061001362720737
  22       0.1400856544396
  23    -0.080986477592258
  24    -0.0041090240407186
  25    -0.0070616191569287
  26     -0.01600904894056
  27    -0.010834029475238
  28     0.012160334256216
  29    -0.019727774180924
  30    -0.037280386793277
  31    0.0025705982893718
  32    0.0093233502828294
  33    -0.0079123008843028
  34    -0.019503762903813
  35    -0.036941173140907
  36    0.0025818125038494
  37     0.011612451951595
  38    -0.0040929070890418
  39      0.43308584991727
  40      0.16025704352044
  41    -0.012844094554682
  42    -0.026070255399426
  43     0.014964317348976
  44    -0.0088144419313557
  45    -0.0091511744115251
  46    -0.0019678427237203
  47    -0.00044622854004458
  48    0.00066059202631668
  49     -0.01600866876636
  50    -0.018172263000991
  51    -0.0018148435316523
  52    -0.00090262139348519
  53    0.00014204784419894
  54     0.023720216783527
  55     0.042641751091354
  56    -0.00034151109902444
  57    -0.0010304150257864
  58    0.00085035369313906
 Sym= A
 Ene=               5
 Spin= Alpha
 Occup=    1.00000
   1    -0.0050220339983258
   2      0.18333712450611
   3      0.10565961445031
   4     -0.12357928242777
   5    -0.059704651595107
   6      -0.3417849575786
   7    -0.061003149054581
   8    -0.028006849932476
   9     -0.15936868219606
  10     0.018667622906191
  11     0.013854525719576
  12    0.0060591878986266
  13    0.0023156142520596
  14    0.0024068201516855
  15    -0.0024751980512466
  16    -0.020008487638142
  17     -0.01255862855976
  18     0.024153991748623
  19    0.00020441844616678
  20    -0.0012712683841671
  21     0.013698476216266
  22    0.0029235071807218
  23    0.0062523083925992
  24    0.00076685763157581
  25      0.01659106804637
  26    0.00025886924862919
  27    0.0057696389289278
  28    0.0028104334726258
  29     0.023720391759036
  30     0.042642373947339
  31    0.00034159771972268
  32    1.0769412860238e-05
  33    0.0013360398129248
  34    -0.016006445461236
  35    -0.018170825662782
  36     0.001814862986011
  37    0.00047132530389505
  38    0.00078285995583844
  39    -0.0088198967243368
  40    -0.0091528246165657
  41    0.0019681214702331
  42    -0.00021889351982643
  43    0.00076621929300215
  44      0.43308610477992
  45      0.16025742752348
  46     0.012844008001337
  47    0.0052942530759932
  48     0.029589853062497
  49    -0.019504408294264
  50    -0.036940904926506
  51    -0.0025819341656382
  52    -0.0043289278496344
  53     -0.01152646872573
  54    -0.019726146968827
  55    -0.037279860018972
  56    -0.0025706465030851
  57    6.8303126686057e-05
  58    -0.012228111150351
 Sym= A
 Ene=               6
 Spin= Alpha
 Occup=    1.00000
   1    -0.005022394520241
   2      0.18333735725944
   3      0.10565971045591
   4     -0.12358013941204
   5     -0.26614125627581
   6      0.22259849595079
   7    -0.061003567375799
   8     -0.12401345694328
   9      0.10393917899229
  10    0.00070686094084791
  11    -0.0090117728625507
  12    -0.018032951604547
  13    -0.0080540792400253
  14     0.010794807314251
  15    -0.0024753805141884
  16    -0.020008011118964
  17    -0.012558393468717
  18     0.024154967538305
  19    -0.0012055753872434
  20    0.00045588543861837
  21      0.01369895137825
  22    0.0039517593735578
  23    -0.0056592557424235
  24    -0.0036493004928851
  25     -0.01072956466341
  26    -0.0032027708135403
  27    0.0032199096472944
  28     0.012962928675305
  29    -0.016008272994099
  30    -0.018171718138733
  31    0.0018149489885132
  32    0.00044223702568852
  33    -0.00079955705888034
  34    -0.0088162696771805
  35    -0.0091512424785287
  36    0.0019680202300361
  37    0.0007732067092986
  38    -0.00019347040595088
  39     0.023720272300006
  40     0.042642202288477
  41    0.00034162433391198
  42    0.0011515760805592
  43    -0.00067742737142043
  44    -0.019504595219033
  45    -0.036941253834204
  46    -0.0025819627641071
  47    -0.0078177158420015
  48    0.0095122265381892
  49    -0.019724711571819
  50    -0.037279007775925
  51    -0.0025706169181498
  52    -0.010624072120647
  53    0.0060548806040096
  54      0.43308606449832
  55       0.1602573571228
  56     0.012843981609838
  57     0.022978475449395
  58    -0.019379875896556
 Sym= A
 Ene=               7
 Spin= Alpha
 Occup=    1.00000
   1    -0.0024755334707239
   2     -0.02000800856804
   3    -0.012558235765389
   4    -0.024152751249457
   5    -0.0012662193934582
   6    -0.00024026514558712
   7    -0.013697906889611
   8     0.004874583414855
   9    0.0048867066398647
  10    -0.0045170267388634
  11    -0.0083154032619091
  12    0.0024793911581575
  13     0.002719134729881
  14    -0.014629245250745
  15    -0.0050224243111318
  16      0.18333841294294
  17      0.10566047843344
  18      0.12357843776099
  19      -0.3007533523586
  20     -0.17299891670252
  21     0.061002767979556
  22     -0.14017899143206
  23    -0.080824048903718
  24    -0.0044560374726556
  25    -0.0070002168261788
  26     0.015777562051687
  27    -0.011034744328071
  28    -0.012195761080789
  29    -0.019502096349424
  30    -0.036940274392339
  31    0.0025818263316994
  32    -0.0093507763215848
  33    -0.008010314551673
  34      0.43308594538708
  35      0.16025713250377
  36    -0.012844029287538
  37     0.025994617766499
  38      0.01509537525688
  39    -0.019727208594211
  40    -0.037280299458486
  41    0.0025706514405591
  42     -0.01151397152975
  43    -0.0041180474947071
  44    -0.016008275832025
  45    -0.018171498682625
  46    -0.001814892243258
  47    0.00057436392694425
  48    0.00071056423303838
  49     0.023719555822411
  50     0.042641929052182
  51    -0.00034159692764887
  52    0.0012517887775175
  53    0.00046716464866022
  54    -0.0088177119333149
  55    -0.0091520920292476
  56    -0.0019680158867478
  57    0.00079498571098836
  58    5.630574181432e-05
 Sym= A
 Ene=               8
 Spin= Alpha
 Occup=    1.00000
   1    -0.0055343186184081
   2      0.19647807450057
   3      0.14787556994925
   4      0.36758692406897
   5    -1.808432960622e-06
   6    -3.0837662301506e-07
   7      0.17053058684143
   8    -8.0028871376991e-07
   9    -1.1838615719983e-07
  10    -0.015946393346865
  11    -2.0031178888991e-08
  12    -5.5108191131343e-08
  13     0.027620058815488
  14    -3.5280936169321e-08
  15    -0.0055335823427716
  16       0.1964740706377
  17      0.14787323226883
  18     -0.36758888319885
  19    -2.2336780973535e-06
  20    -6.8709126236946e-07
  21     -0.17053151776344
  22    -1.0024539867054e-06
  23    -3.2340576809665e-07
  24    -0.015946578531104
  25    -1.2211626076753e-08
  26    1.0018322081642e-07
  27     0.027620223657743
  28    -3.1034324676688e-09
  29    -0.022406020048681
  30    -0.037522688188117
  31    -0.0094424539773259
  32    7.6397513806086e-07
  33    -0.0013491405317039
  34    -0.022403589687486
  35    -0.037521797438087
  36     -0.00944253401412
  37    0.0011680828173143
  38    0.00067536988281723
  39    -0.022406725286805
  40    -0.037522922461048
  41    -0.0094424283661627
  42    -0.0011687940037083
  43    0.00067378621828151
  44    -0.022402390551284
  45    -0.037521879632921
  46    0.0094425665176796
  47    0.00023510847421608
  48    0.0013288653469913
  49    -0.022404249405589
  50    -0.037522433415858
  51    0.0094425032604367
  52    -0.0012682973308066
  53    -0.00046072786177743
  54     -0.02240191221456
  55    -0.037521703718677
  56    0.0094425797520284
  57     0.001033238616102
  58    -0.0008681281182679
 Sym= A
 Ene=               9
 Spin= Alpha
 Occup=    0.00000
   1     -0.16498670224417
   2     -0.21403030891797
   3       3.6128235388728
   4      0.32683252981292
   5    -0.00075261793332697
   6    -0.0040587908560365
   7       1.7720091889034
   8    -0.00020020196952953
   9    -0.0089893165691258
  10     -0.08183648231592
  11    0.0011170573271846
  12    0.0016320074527675
  13      0.15072025880426
  14    0.0002767451578355
  15      0.28480072857437
  16      0.54694723021555
  17      -2.1389548502667
  18     -0.35010444874745
  19    -8.832679052296e-05
  20    -0.00010723243770645
  21       3.6642372690557
  22    -0.0021248238794943
  23     0.012645014578358
  24       0.1327802324011
  25    0.0019130608942546
  26    0.0013104967783667
  27     -0.22787783291781
  28    -0.00033936412252038
  29     -0.16825526321708
  30     -0.49721037362673
  31     -0.30006867469939
  32    0.00014961101980357
  33      0.18420381565747
  34     -0.16329596334604
  35      -0.4884349357423
  36     -0.30017044448635
  37     -0.15772419435717
  38    -0.092400600940629
  39      -0.1610273221392
  40     -0.48660124110133
  41     -0.30078423864968
  42      0.15695076052442
  43     -0.09234474471917
  44     -0.15400256986673
  45      0.12284027034277
  46    0.0082375607635719
  47    -0.00032482256629154
  48    0.0037729947776247
  49     -0.14390889415205
  50      0.12717863805872
  51     0.010147556696077
  52    -0.0067007792848225
  53    -0.0031021415746493
  54     -0.14363418919019
  55      0.12784874325463
  56     0.009962253271246
  57    0.0062648557932898
  58    -0.0039389550012653
 Sym= A
 Ene=              10
 Spin= Alpha
 Occup=    0.00000
   1    -0.052215307484897
   2    -0.057315660595365
   3       1.0880481738528
   4      0.12899931021591
   5     0.021490461280667
   6     0.015005030672094
   7      0.43948549212915
   8     -0.55478712687253
   9     -0.45148498503662
  10     -0.04342243475034
  11    -0.062701877711946
  12      0.01589789475718
  13     0.022047703906822
  14    -0.088584108304158
  15       0.4082590619475
  16      0.72288354813076
  17      -3.3819079951833
  18     -0.16277435761353
  19     0.067070167994153
  20     0.029045217765804
  21     0.079421859587053
  22       2.1537900613585
  23       1.5209169740675
  24      0.14126117270073
  25      0.17096255991777
  26     -0.29591027362859
  27      0.15529890865395
  28       0.2508916088526
  29    -0.015915335750582
  30     -0.38034248628359
  31     0.047502343416244
  32     -0.23961132234271
  33    -0.0020792980609164
  34       1.6489232488601
  35       1.8214531064165
  36     -0.24992554703192
  37      0.41453819027408
  38      0.20615645240253
  39       0.1239897786177
  40     -0.16136911282881
  41     0.025228554639335
  42     -0.16560489147867
  43     -0.21316486145677
  44    -0.067006283547729
  45     -0.16291772014237
  46     0.060454353692701
  47     0.054002686986791
  48     0.012255843274789
  49    -0.042275238358711
  50     0.064570842495791
  51    -0.091091829345868
  52     0.032246333743762
  53      0.03045996290779
  54     -0.04776333972513
  55    -0.0096537707824191
  56     0.035660327898236
  57     0.049211390752725
  58     0.044071145147918
 Sym= A
 Ene=              11
 Spin= Alpha
 Occup=    0.00000
   1      0.37969660927236
   2      0.67013696348938
   3      -3.1682230279346
   4      0.15504300198822
   5      0.01247537521431
   6     0.065831223817723
   7     -0.14404424056652
   8      0.48732358988453
   9       2.6696527918328
  10     -0.32932691578826
  11      -0.3111937234715
  12     -0.12360313404627
  13     -0.12807885905848
  14    -0.052527904232379
  15    -0.055133958874134
  16    -0.062390611667908
  17       1.1102128918442
  18     -0.12355237558335
  19    0.0042217699174496
  20     0.028214235516517
  21     -0.43786182820364
  22     -0.16225370339295
  23      -0.6454392959266
  24     0.016267109297409
  25      0.11917190723289
  26    -0.0045429969013779
  27     0.056394357088879
  28       0.0214432658781
  29    -0.077568254975929
  30     0.036741642802154
  31      0.10165907506462
  32    0.0098634365055711
  33     0.053042940673487
  34    -0.053710137525754
  35     -0.13331214452812
  36    -0.059253473649916
  37    -0.0056459941177979
  38     0.055789195064427
  39    -0.047273722600765
  40    -0.011140853291685
  41    -0.045246128194386
  42     0.017531174831104
  43     0.056679850448896
  44       1.6428518410877
  45       1.8296288932899
  46      0.26152671985497
  47     0.078315215833097
  48      0.44915324085333
  49    -0.0087841717560075
  50     -0.35215632127062
  51    -0.040161267794692
  52       0.0908735486637
  53     -0.24488114968933
  54    -0.0077114914667607
  55     -0.32942219036904
  56    -0.039748558818214
  57     -0.16722523698225
  58     -0.20180503476118
 Sym= A
 Ene=              12
 Spin= Alpha
 Occup=    0.00000
   1      0.37468657245747
   2      0.65269665466035
   3      -3.3210984264593
   4      0.14496388285932
   5      -0.1155219625734
   6    -0.044620734277143
   7      0.38553344046506
   8      -2.2567561937722
   9      -0.7253709837779
  10      0.15854627804765
  11     0.091975820044412
  12     -0.21052962611285
  13      0.19148579691073
  14      0.25646400422967
  15    -0.0015639380809851
  16     0.028506480181629
  17      0.58491991018468
  18     -0.11356976092666
  19    -0.00040567648250412
  20    0.0026595422974444
  21     -0.06162318004809
  22      0.30974908208808
  23    0.00090339577843274
  24    -0.013474880768611
  25    -0.025855509105489
  26     0.030960100344906
  27    0.0029367841748407
  28    -0.081896413456064
  29    0.00062152408894724
  30    -0.027344712389938
  31    -0.039452809296265
  32    -0.028484901994971
  33     0.001375315112129
  34     -0.10579189507382
  35     -0.12528733909103
  36     0.080500902417781
  37    -0.047673413239769
  38    -0.017370008664306
  39    -0.0023707703597532
  40     -0.19090285132415
  41    -0.040713686690142
  42    -0.018084387032435
  43    -0.018944488235388
  44       0.1201904116488
  45     -0.25326941049948
  46    -0.041661518803384
  47      0.17484449869631
  48    -0.014644822281444
  49      0.73786126876176
  50       3.1977466860857
  51      0.21115462172563
  52     -0.51180983795007
  53     -0.19512667199748
  54     0.080016768712591
  55     -0.34034420313946
  56     -0.04790512542113
  57      0.11102010861183
  58      0.12472917647695
 Sym= A
 Ene=              13
 Spin= Alpha
 Occup=    0.00000
   1      0.37432969745004
   2      0.65208720159536
   3      -3.3175158467502
   4      0.14497250247843
   5     0.093434505785857
   6    -0.081287463842707
   7      0.38461713735149
   8         1.83159091556
   9      -1.5047956217856
  10    0.0013744557636614
  11      0.16645566565426
  12      0.30988140326643
  13      0.10066424821785
  14     -0.21602547063736
  15    -0.0014318436361962
  16     0.028711484153671
  17      0.58359754532575
  18     -0.11360950003678
  19    -0.0012548631893729
  20    -0.00055152995990284
  21     -0.06161397886779
  22      -0.1769854337424
  23      0.24483379480804
  24    -0.022391234402532
  25     -0.05424461202262
  26    -0.024085533189997
  27    -0.0023834037511686
  28     0.066591144912369
  29    -0.0022045630824141
  30     -0.18672096221063
  31    -0.037522529399887
  32     0.026995730037555
  33    -0.0050531715494785
  34    0.00014367346712623
  35    -0.033679451690172
  36    -0.042876342377139
  37     0.013618107610352
  38    -0.023466009723094
  39      -0.1050273793893
  40     -0.12222163089612
  41     0.080695987794325
  42     0.040380654562574
  43    -0.030129719037593
  44        0.113361793753
  45     -0.28601279470473
  46    -0.041836733564893
  47     -0.16794830515849
  48     0.043498255396447
  49     0.085250172689449
  50     -0.31036748491508
  51    -0.047712478861484
  52    -0.063842755268332
  53      0.15651892661313
  54      0.73748808229092
  55       3.1983600190154
  56      0.21125798911419
  57      0.41829264881998
  58     -0.35324217160767
 Sym= A
 Ene=              14
 Spin= Alpha
 Occup=    0.00000
   1     0.052445147403851
   2     0.057911160302837
   3       -1.088045225979
   4     -0.12905995657342
   5     0.026227226091142
   6    -0.0084048551004142
   7      -0.4382018930843
   8     -0.68812826911082
   9      0.23069405037806
  10     0.021423321105043
  11      0.04731697788342
  12     0.030518078157349
  13    -0.034854222130801
  14    -0.097055633147054
  15     -0.40785701149556
  16     -0.72211436395028
  17       3.3791015026619
  18      0.16247753479818
  19     0.057820477834835
  20    -0.044231090741275
  21    -0.077542275971451
  22       2.3984389157166
  23      -1.0994587351401
  24     -0.10499336162606
  25     -0.13334445943339
  26     -0.31696171555903
  27     -0.13338496093007
  28      0.27218584321566
  29     -0.12290097549962
  30      0.16107495375519
  31    -0.026698676528695
  32     -0.26879863695087
  33     0.036047946403362
  34      0.01425274118105
  35      0.38132314469075
  36    -0.046221033430857
  37     -0.12279290841908
  38      0.20580569218397
  39      -1.6475079197427
  40      -1.8222752018394
  41      0.24898741362679
  42      0.38460003687396
  43     -0.25688405301531
  44      0.04080553501145
  45    -0.0057182434360796
  46    -0.036678537186321
  47     0.064100544998095
  48    -0.022300350787403
  49     0.071912938089984
  50      0.18152888820091
  51    -0.059533507370782
  52     0.035555707376911
  53    -0.039263151800443
  54     0.042619501440823
  55     -0.06458655638521
  56      0.09112739104459
  57     0.044991893364733
  58    -0.0096537222623147
 Sym= A
 Ene=              15
 Spin= Alpha
 Occup=    0.00000
   1     0.065390982195199
   2     0.080548871963072
   3      -1.2037290420469
   4     -0.12656022966324
   5    -0.0038893042953198
   6     0.029845738651761
   7     -0.44623166339654
   8      0.13679555977173
   9     -0.66683082303377
  10    -0.009680586758014
  11     -0.11304106539172
  12    -0.018005630521914
  13    -0.052372556418181
  14    0.0081216681326082
  15     -0.40978518288917
  16      -0.7241580006237
  17       3.4171159591737
  18      0.16029941243209
  19    0.0084580859386936
  20     0.073858602091735
  21      -0.1063207841124
  22     -0.24639567133484
  23       2.6157084601347
  24      0.33679067578564
  25      0.30400179027465
  26      0.02665335659085
  27      0.12465811805192
  28     -0.02149878792731
  29      -1.6501934692169
  30      -1.8182848412665
  31      0.25252620609107
  32     0.028849808518434