[Molden Format]
made by pyscf v[2.0.1]
[Atoms] (AU)
C   1   6     0.00000000000000     0.00000000000000     0.00000000000000
C   2   6     2.89040035821050     0.00000000000000     0.00000000000000
H   3   1     3.65380793584534     0.00000000000000     1.93990930394644
H   4   1     3.65380793584534    -1.68001073825540    -0.96995465197322
H   5   1     3.65380793584534     1.68001073825540    -0.96995465197322
H   6   1    -0.76340757763484    -0.66348805817456     1.82291845791239
H   7   1    -0.76340757763484     1.91043772266697    -0.33686171546942
H   8   1    -0.76340757763484    -1.24694966449241    -1.48605674244297
[GTO]
1 0
 s    8 1.00
                  6665  0.00069158396281299
                  1000  0.0053257961529341
                   228   0.027060721042034
                 64.71    0.10165684614077
                 21.06     0.2745748236174
                 7.495    0.44829431892377
                 2.797    0.28490261071525
                0.5215   0.015194859206082
 s    8 1.00
                  6665  -0.00029326965268655
                  1000  -0.0023180354739745
                   228  -0.011499786038565
                 64.71  -0.046826727009787
                 21.06   -0.12846616875047
                 7.495   -0.30126627246289
                 2.797   -0.25563070233011
                0.5215      1.093793361012
 s    1 1.00
                0.1596                   1
 p    3 1.00
                 9.439   0.056979251590039
                 2.002    0.31320721150073
                0.5456    0.76037674173753
 p    1 1.00
                0.1517                   1
 d    1 1.00
                  0.55                   1

2 0
 s    8 1.00
                  6665  0.00069158396281299
                  1000  0.0053257961529341
                   228   0.027060721042034
                 64.71    0.10165684614077
                 21.06     0.2745748236174
                 7.495    0.44829431892377
                 2.797    0.28490261071525
                0.5215   0.015194859206082
 s    8 1.00
                  6665  -0.00029326965268655
                  1000  -0.0023180354739745
                   228  -0.011499786038565
                 64.71  -0.046826727009787
                 21.06   -0.12846616875047
                 7.495   -0.30126627246289
                 2.797   -0.25563070233011
                0.5215      1.093793361012
 s    1 1.00
                0.1596                   1
 p    3 1.00
                 9.439   0.056979251590039
                 2.002    0.31320721150073
                0.5456    0.76037674173753
 p    1 1.00
                0.1517                   1
 d    1 1.00
                  0.55                   1

3 0
 s    3 1.00
                 13.01   0.033498726389998
                 1.962    0.23480080117413
                0.4446     0.8136829578829
 s    1 1.00
                 0.122                   1
 p    1 1.00
                 0.727                   1

4 0
 s    3 1.00
                 13.01   0.033498726389998
                 1.962    0.23480080117413
                0.4446     0.8136829578829
 s    1 1.00
                 0.122                   1
 p    1 1.00
                 0.727                   1

5 0
 s    3 1.00
                 13.01   0.033498726389998
                 1.962    0.23480080117413
                0.4446     0.8136829578829
 s    1 1.00
                 0.122                   1
 p    1 1.00
                 0.727                   1

6 0
 s    3 1.00
                 13.01   0.033498726389998
                 1.962    0.23480080117413
                0.4446     0.8136829578829
 s    1 1.00
                 0.122                   1
 p    1 1.00
                 0.727                   1

7 0
 s    3 1.00
                 13.01   0.033498726389998
                 1.962    0.23480080117413
                0.4446     0.8136829578829
 s    1 1.00
                 0.122                   1
 p    1 1.00
                 0.727                   1

8 0
 s    3 1.00
                 13.01   0.033498726389998
                 1.962    0.23480080117413
                0.4446     0.8136829578829
 s    1 1.00
                 0.122                   1
 p    1 1.00
                 0.727                   1

[5d]
[7f]
[9g]

[MO]
 Sym= A
 Ene=               0
 Spin= Alpha
 Occup=    1.00000
   1    -0.00013590194112136
   2    0.00014973347900744
   3    0.0024179875918269
   4    0.00031280920089824
   5    2.3778308378962e-07
   6    6.0960715957241e-08
   7    0.0011613860452649
   8    9.428089818468e-08
   9    3.7245472930924e-08
  10    0.00010360291657188
  11    -1.8228737799292e-08
  12    -1.1266251395451e-08
  13    -0.00017946090673387
  14    1.2424028860038e-08
  15       1.0022714157769
  16    0.0054807502671044
  17    -0.0088721181005518
  18    0.00020189398032385
  19    4.6596529875916e-07
  20    -3.2825321647326e-07
  21    0.00078399402964004
  22    2.1474834821768e-07
  23    -1.5750546723999e-07
  24    8.9022818583306e-05
  25    -1.6163137914096e-08
  26    -2.380197706729e-08
  27    -0.00015422689752778
  28    7.3052194278423e-09
  29    0.00047736990500251
  30    0.0012670828496332
  31    9.0100597943581e-05
  32    1.1757782024604e-06
  33    0.00036757993194812
  34    0.00047746721604566
  35    0.0012671485221054
  36    9.0097448137797e-05
  37    -0.00031890377696573
  38    -0.0001827962702089
  39    0.00047814004417965
  40    0.0012674170553462
  41    9.007384093342e-05
  42    0.00031771832584847
  43    -0.00018477837023172
  44    -0.00010829419199268
  45    8.9504710691097e-05
  46    4.3578099001666e-05
  47    2.6755082993832e-06
  48    -1.7036280031526e-05
  49    -0.0001081486345174
  50    8.9501798224784e-05
  51    4.3584509924542e-05
  52    -1.6102780166538e-05
  53    6.214230190657e-06
  54    -0.00010847758671942
  55    8.9389194727207e-05
  56    4.3571460976934e-05
  57    1.3420849500219e-05
  58    1.0823305255777e-05
 Sym= A
 Ene=               1
 Spin= Alpha
 Occup=    1.00000
   1       1.0022714225448
   2    0.0054807040225018
   3    -0.0088721462880834
   4    -0.00020187493786158
   5    -1.0057247097387e-06
   6    -9.006369629969e-08
   7    -0.00078398083150386
   8    -4.8232443914613e-07
   9    -4.4639447997713e-08
  10    8.9078027907679e-05
  11    6.6165580215675e-09
  12    2.8915615412349e-08
  13    -0.00015420146733739
  14    3.9842392291795e-08
  15    -0.00013591212619182
  16    0.00014954440964038
  17    0.0024178713784263
  18    -0.00031289777549209
  19    -5.9043950592685e-09
  20    6.0507108502706e-08
  21    -0.0011614308264533
  22    3.4959488245967e-08
  23    2.3859043698356e-08
  24    0.00010361502244483
  25    7.159656263044e-09
  26    -2.2775704448753e-09
  27    -0.00017945067621409
  28    4.7332651519244e-08
  29    -0.00010836788150623
  30    8.9479989253853e-05
  31    -4.3578168743155e-05
  32    3.320669826715e-06
  33    -1.6913692271448e-05
  34    -0.00010851648363802
  35    8.9336801232815e-05
  36    -4.3572955328692e-05
  37    1.2986556995791e-05
  38    1.1333374606765e-05
  39    -0.00010840204835354
  40    8.9503071689422e-05
  41    -4.3573857607828e-05
  42    -1.6301801544741e-05
  43    5.5809419001637e-06
  44    0.00047785104395007
  45     0.001267301087925
  46    -9.0083301241426e-05
  47    -0.00012683252309234
  48    0.00034498473019684
  49    0.00047678234402023
  50    0.0012668365997235
  51    -9.0119776825289e-05
  52    0.00036222717850533
  53    -6.2699272645765e-05
  54    0.00047825174278644
  55    0.0012674855694129
  56    -9.0069944511033e-05
  57    -0.00023537647224157
  58    -0.00028228423364579
 Sym= A
 Ene=               2
 Spin= Alpha
 Occup=    1.00000
   1    -0.0024023394738803
   2    -0.020560920664733
   3     -0.01527125383304
   4    -0.025090620063103
   5    0.00071177652085941
   6    0.00035269402488982
   7    -0.015509586646855
   8     0.003241551687214
   9    -0.012605861608913
  10    -0.0015496841687757
  11     0.016375441492657
  12    0.0016611501273024
  13    0.0043000643671455
  14    0.00017930995195653
  15    -0.013465675594133
  16      0.18292073897393
  17       0.1106510995366
  18      0.12422580922617
  19    0.00087339475182907
  20       0.3462863031692
  21      0.06047884222893
  22    0.00011713780002535
  23       0.1662922229337
  24     0.019059327708664
  25     0.013792265307169
  26    0.00041182857378762
  27    0.0023850296087992
  28    5.5796933881219e-05
  29      0.43098262089909
  30      0.16125120413891
  31    -0.012734021811757
  32    0.00012650720016052
  33    -0.030009636515301
  34    -0.020253985899821
  35    -0.037313616982839
  36     0.002535075329467
  37    0.0020331982751224
  38     0.011804865610964
  39    -0.019991565507501
  40    -0.036826476867814
  41    0.0025551729874942
  42    -0.0021534439824427
  43     0.011928870896334
  44    -0.022753102671612
  45    -0.026010405750485
  46    -0.0013425963183452
  47    0.00013722986954411
  48    -0.0008194497583572
  49    0.0041376284045703
  50     0.008334351292266
  51    -0.001618279843803
  52    -4.3630625420688e-05
  53    -0.00035254942994128
  54     0.018737294824196
  55      0.03265355185496
  56    -0.00074999372701726
  57    -0.00053616391506491
  58    -0.00070096336847333
 Sym= A
 Ene=               3
 Spin= Alpha
 Occup=    1.00000
   1    -0.013464371132831
   2      0.18292203000327
   3      0.11065218322973
   4     -0.12422118670115
   5      0.34117945113059
   6    -0.059263499153035
   7    -0.060476658024508
   8      0.16378739452346
   9     -0.02875703370284
  10    -0.010792884063665
  11    0.0023398098949798
  12    -0.0056666307134225
  13    -0.014849754025269
  14    -0.013592550435122
  15    -0.0024029848612993
  16    -0.020559905610192
  17    -0.015270312335492
  18     0.025085867165492
  19    0.00047008831488195
  20    0.00064163629864902
  21     0.015507339948838
  22    -0.011852026065532
  23    0.0053819221883803
  24    -0.0033990820438222
  25    0.0026666595253046
  26    0.0012846449363796
  27    0.0032327308345776
  28    -0.016157939318888
  29     0.004137626060893
  30    0.0083336393245115
  31    0.0016181466160364
  32    -0.00035479400969858
  33    1.822760468173e-05
  34     0.018736463605195
  35      0.03265342562235
  36    0.00074991626288217
  37    -0.00078353864299578
  38    -0.00040630164047376
  39     -0.02275547315487
  40    -0.026011376333513
  41    0.0013425466115454
  42    -0.00078301289694883
  43    0.00027738679217729
  44    -0.019986494690322
  45    -0.036824559553845
  46    -0.002554876485267
  47     0.011373931343255
  48     -0.00419233352156
  49      0.43098256780933
  50      0.16125106536001
  51     0.012734138297546
  52    -0.029531679654643
  53    0.0053359592361391
  54    -0.020261694504827
  55    -0.037317103248717
  56    -0.0025352138876251
  57     0.011978239618398
  58    -4.7823408994212e-05
 Sym= A
 Ene=               4
 Spin= Alpha
 Occup=    1.00000
   1    -0.0024021140782182
   2    -0.020561398973546
   3    -0.015271590713391
   4     -0.02509114297964
   5    -0.00065695601007688
   6    0.00043689866284121
   7    -0.015509801760188
   8    0.0092983510957483
   9    0.0091086984419283
  10    -0.0038453217244184
  11    -0.0080323322883239
  12    -0.00013082023106015
  13    0.0029745696603716
  14     -0.01427142576437
  15    -0.013465729088537
  16      0.18291911500714
  17      0.11065005864281
  18      0.12422577469281
  19     -0.30033043158991
  20     -0.17238729260656
  21     0.060478803891875
  22     -0.14407247203325
  23    -0.083044765197673
  24    -0.0042404295679765
  25    -0.0068476838137963
  26     0.015121407632485
  27    -0.011067121632892
  28    -0.011972599066528
  29    -0.019992612540327
  30     -0.03682651327518
  31    0.0025552275804881
  32    -0.009254019208276
  33    -0.0078292407642074
  34      0.43098295770456
  35      0.16125177701125
  36    -0.012734027302461
  37     0.025925797284893
  38     0.015114349616933
  39     -0.02025569923729
  40    -0.037314494394786
  41    0.0025351340221944
  42    -0.011239829415051
  43    -0.0041417149534798
  44    0.0041336689419686
  45    0.0083326697548526
  46    -0.0016184278853959
  47    0.00032714973684306
  48    0.00013871807250707
  49     0.018741499781742
  50     0.032655522770957
  51    -0.00074986412238296
  52    0.00087493618043677
  53    -0.00011388723616382
  54    -0.022753575343604
  55    -0.026010629384626
  56    -0.0013426219842905
  57    0.00064115659404393
  58    0.0005284375529555
 Sym= A
 Ene=               5
 Spin= Alpha
 Occup=    1.00000
   1    -0.013466739884711
   2      0.18292067709396
   3      0.11065098388941
   4      -0.1242273340076
   5     -0.11926679861302
   6      0.32510002876601
   7    -0.060479562360525
   8    -0.056989668598211
   9      0.15622180471407
  10     0.015244488901617
  11    -0.012941430812094
  12    -0.011691385089661
  13    0.00018239714651756
  14    0.0047698460863581
  15    -0.0024024793664204
  16    -0.020561408498264
  17    -0.015271646189806
  18     0.025091935450395
  19    -0.00079332967946309
  20    8.4077066150325e-05
  21     0.015510213332728
  22    0.0012639225035172
  23    -0.012956122083002
  24    -0.0026381859827547
  25    -0.015326518313221
  26    -0.0017916841158423
  27    0.0036715125737294
  28    0.0057695057770101
  29    -0.022756004385822
  30    -0.026011278082328
  31    0.0013427257643369
  32    0.00015120122972389
  33    -0.00081679572751245
  34    0.0041417086104409
  35    0.0083355424451991
  36    0.0016181635477472
  37    0.00016182869952433
  38    -0.00031626832831968
  39     0.018736711206954
  40      0.03265370674185
  41    0.00075006888201055
  42    0.00074354991471095
  43    -0.00047547548014219
  44      0.43098278352559
  45      0.16125139031662
  46      0.01273398058315
  47     0.010144743264574
  48    -0.028243217922776
  49    -0.020260553754587
  50    -0.037316260014708
  51    -0.0025353347424834
  52    -0.0059477927250764
  53     0.010397328977538
  54    -0.019983740101328
  55    -0.036823396783596
  56    -0.0025549362540162
  57    -0.0020561579629195
  58     0.011946417432201
 Sym= A
 Ene=               6
 Spin= Alpha
 Occup=    1.00000
   1    -0.0024022181972445
   2    -0.020559863627025
   3    -0.015270637269296
   4    -0.025091655786451
   5    -5.1975781837711e-05
   6    -0.00078964697656408
   7    -0.015510075482377
   8    -0.012538511917582
   9    0.0034972050428471
  10      -0.0013532332001
  11    -0.0083431856386005
  12    -0.001530402547769
  13    0.0044133824165617
  14     0.014091951698852
  15    -0.013467368192601
  16      0.18291986291267
  17      0.11065054774465
  18      0.12422590713952
  19       0.2994559833418
  20     -0.17390067242794
  21      0.06047890238305
  22      0.14395472519568
  23    -0.083248230566263
  24    -0.0036227313357773
  25    -0.0069446463972072
  26    -0.015533175623971
  27    -0.010710435782255
  28     0.011916625189511
  29    -0.020255574444111
  30    -0.037314373170466
  31    0.0025351329850817
  32    0.0092067145446406
  33    -0.007663145942036
  34    -0.019991402385956
  35    -0.036826272825931
  36    0.0025551829249622
  37     0.011407426427057
  38    -0.0040995366651128
  39      0.43098290363148
  40      0.16125167581502
  41    -0.012734018547992
  42    -0.026052347573776
  43     0.014895215700531
  44     0.018741217900433
  45     0.032655172721119
  46    -0.00074987997242511
  47    -0.00033889879275734
  48    0.00081458305306929
  49    -0.022754033783834
  50     -0.02601099027234
  51    -0.0013426429886408
  52    -0.00077827123235827
  53    0.00029096747430596
  54    0.0041371884183998
  55    0.0083339229011081
  56    -0.0016183112513128
  57    -0.0002835516228788
  58    0.0002141525034654
 Sym= A
 Ene=               7
 Spin= Alpha
 Occup=    1.00000
   1    -0.013467494839143
   2      0.18291911806424
   3      0.11065011297515
   4     -0.12422520917064
   5     -0.22191224004946
   6     -0.26583987754303
   7    -0.060478550132036
   8     -0.10679744173547
   9     -0.12746639531771
  10     0.006744416339468
  11     0.010601800010214
  12     0.017358165994661
  13    -0.0047249381761977
  14     0.008822584134527
  15    -0.0024021562495991
  16    -0.020560473009192
  17    -0.015270991058242
  18     0.025091023409013
  19    0.00032105059108989
  20    -0.00072477117038762
  21     0.015509753319218
  22     0.010587063870962
  23    0.0075747775682887
  24    -0.00071099220288797
  25     0.012660054968504
  26    0.00050716879116383
  27    0.0047841934151895
  28     0.010388325194698
  29     0.018740717595695
  30     0.032655439803971
  31    0.0007499022071574
  32    3.9914144020891e-05
  33    0.00088146559696627
  34    -0.022755730568477
  35    -0.026011413192196
  36    0.0013426792750231
  37    0.00063171949995744
  38    0.00053950069559639
  39    0.0041378431003691
  40    0.0083336585264211
  41    0.0016182636016453
  42    0.00019316548449593
  43    0.00029826113114271
  44    -0.020263597401324
  45     -0.03731769521672
  46    -0.002535390380964
  47    -0.0060305639423746
  48    -0.010349423668202
  49    -0.019985332876401
  50    -0.036823638229221
  51    -0.0025549597253402
  52    -0.0093176494128144
  53    -0.007753988371054
  54      0.43098305627924
  55       0.1612518947093
  56     0.012734034450049
  57     0.019386932905845
  58     0.022907134155562
 Sym= A
 Ene=               8
 Spin= Alpha
 Occup=    1.00000
   1      0.01090313877028
   2     -0.19903322700098
   3     -0.14924352981407
   4     -0.36533808581803
   5    4.116368697492e-06
   6    -1.3994820138403e-06
   7     -0.16967352056028
   8    1.9652300046257e-06
   9    -6.9868324712978e-07
  10     0.016045647089081
  11    8.051332477215e-08
  12    -3.5972569064845e-08
  13    -0.027792307646117
  14    -1.4478690419737e-07
  15     0.010903345600748
  16     -0.19903520438097
  17      -0.1492447549387
  18      0.36533712224267
  19    4.0838864879456e-07
  20    5.3976716403793e-07
  21      0.16967308363715
  22    5.5777518523507e-08
  23    3.4598350384256e-07
  24      0.01604578780443
  25    8.5722818061508e-08
  26    -1.2940165542745e-09
  27    -0.027792092127526
  28    -1.7913254250246e-07
  29     0.022206920004267
  30     0.037284950165294
  31    0.0092283916787551
  32    -1.6835197740575e-06
  33     0.001406312995527
  34     0.022206028076722
  35     0.037284709320867
  36    0.0092284150134401
  37    -0.0012171108754982
  38    -0.00070464207765546
  39     0.022206129482128
  40     0.037284258459782
  41    0.0092284033007678
  42    0.0012187631179521
  43    -0.00070167822909763
  44     0.022205229320154
  45     0.037283801491525
  46     -0.00922844654928
  47    -0.00047929613807336
  48    0.0013221053862149
  49     0.022211332558516
  50     0.037286478828081
  51    -0.0092282412351369
  52    0.0013843433994031
  53    -0.00024583473956591
  54      0.02220631241783
  55      0.03728433843856
  56    -0.009228411797992
  57    -0.00090512459233554
  58    -0.0010762474017944
 Sym= A
 Ene=               9
 Spin= Alpha
 Occup=    0.00000
   1      -1.0385344334687
   2      -2.0384032298882
   3       6.6406250638458
   4     0.074219497927399
   5    0.0057890659997191
   6    -0.032503606821558
   7      0.42426565953823
   8    -0.013320257745904
   9    -0.015238008520786
  10    -0.041863904752369
  11     0.050901084652669
  12     0.053257447286997
  13    0.0012626107062185
  14    -0.0046600483795406
  15      0.11075502370993
  16      0.13079462505889
  17       -2.263409114012
  18      0.21740003878857
  19    0.0019276948041012
  20    -0.0045479578214662
  21       1.2487625651434
  22    0.0067453689660379
  23    -0.011186031724032
  24     0.042183883174132
  25    0.0092489526182149
  26    -0.0045088754274744
  27    -0.069878966207752
  28    -0.00086521814665787
  29      0.13093715583238
  30    -0.018437568721639
  31    -0.058258312823143
  32    -0.002388923776216
  33    0.0061083456453642
  34       0.1316713023859
  35    -0.025453966042196
  36    -0.055089016422567
  37    -0.0015392862086543
  38    -0.0034013471208315
  39      0.12631221401275
  40    -0.028349277363142
  41    -0.054039962811473
  42    0.0059740916529961
  43    0.0015996703485732
  44     -0.59848679615749
  45     -0.88064081171743
  46    -0.023322581602952
  47    -0.019253019018533
  48     0.049715571120205
  49     -0.65533911703971
  50     -0.88752090130786
  51    -0.030963184505245
  52     0.079900777533148
  53    -0.020446168623721
  54     -0.68313106751481
  55     -0.90616498384177
  56    -0.034861770107697
  57    -0.055492247828015
  58    -0.075032412426304
 Sym= A
 Ene=              10
 Spin= Alpha
 Occup=    0.00000
   1       0.1165965116988
   2      0.13872414599907
   3      -2.4432320127924
   4     -0.22880026609917
   5    -0.0011299323710487
   6    0.0032340623091963
   7       -1.369748340266
   8    0.0018555680422908
   9     0.019513438740171
  10     0.040483603929429
  11    0.0036903000346327
  12    -0.0031489315205235
  13    -0.073648559685005
  14    -0.0041666083219211
  15      -1.0493011473563
  16      -2.0580461915051
  17       6.7465860756509
  18    -0.020887369590583
  19    -0.0098413975000509
  20     0.023931308800061
  21     -0.67497163792501
  22    -0.032405221476889
  23    -0.035472082728352
  24     0.018099379564514
  25     0.015606376661267
  26     0.030177726204103
  27     0.031301474982146
  28    -0.026586798814112
  29     -0.65314991616173
  30     -0.83577097659867
  31     0.050013946175083
  32    -0.00067614327758625
  33     0.080543798563922
  34     -0.65915572619708
  35     -0.87595334411354
  36      0.04788206015171
  37    -0.069585624975779
  38     -0.03155889126549
  39     -0.60849375113323
  40     -0.84201875263979
  41      0.04187299515719
  42     0.051608163400492
  43    -0.022400986252871
  44      0.13115158132826
  45    -0.053938321032436
  46     0.056040307011798
  47    0.00051881735586508
  48     0.007001404101036
  49       0.1338627972028
  50    -0.043320132857079
  51     0.058968856322084
  52    0.0069488969219066
  53    -0.0053185924826848
  54      0.13901993254936
  55     -0.04245441732434
  56     0.057248327977842
  57    -0.0049378885771793
  58    -0.0031927467343902
 Sym= A
 Ene=              11
 Spin= Alpha
 Occup=    0.00000
   1    -0.013058021948494
   2    -0.025034168047897
   3     0.094623533515533
   4    -0.017155793665902
   5     0.066228275957601
   6     -0.43288333679859
   7      0.11198992181194
   8    0.0094392417971403
   9       2.8737940945309
  10    -0.029281282326437
  11     -0.76212278396909
  12     -0.25668718582586
  13    0.00034019079451052
  14    -0.031189960726752
  15    0.0018174097353937
  16    0.00040902697708447
  17    -0.097088169981007
  18     0.011953852233455
  19    -0.006359062754394
  20    -0.019177856588136
  21     0.063469840775107
  22     -0.10574276485811
  23     -0.82192038898948
  24    -0.017417942057659
  25    -0.059238784363013
  26     0.015095411342377
  27    -0.015951109503926
  28    -0.014266289783533
  29      0.16162945389564
  30      0.21637748535442
  31     0.045705236555977
  32    -0.0015663676464125
  33    -0.037360757313692
  34     -0.10093800101106
  35     -0.22905565849391
  36    -0.0087525311034095
  37    -0.060616266003734
  38     0.040247206795065
  39    -0.051859932969788
  40    -0.016573215274382
  41    -0.039758836052486
  42     0.038529447362594
  43     0.051097412916711
  44     -0.83379078823605
  45      -1.4018004527989
  46     -0.01590118964271
  47     -0.12590047482961
  48       0.1353864485076
  49      0.08147962708361
  50      0.26821517041399
  51    -0.020133789616348
  52    -0.050258628727793
  53      -0.2698331954647
  54      0.75471012430383
  55       1.1675011352181
  56     0.021347756299862
  57      0.26777162243294
  58    0.0042570093732476
 Sym= A
 Ene=              12
 Spin= Alpha
 Occup=    0.00000
   1    0.00036106476231291
   2    0.00083493344388476
   3     0.001677446604211
   4    -0.0053602239796661
   5     -0.43676564714865
   6    -0.059955812929539
   7      0.01826513307004
   8       2.9283059297438
   9    -0.012320177322777
  10       -0.247920662277
  11     0.028500979794847
  12    -0.0088795620540673
  13     -0.14810432495416
  14     -0.73530734816687
  15    0.00070173487015692
  16    0.0014345688858688
  17    -0.010680987363098
  18    -0.00065735813874878
  19    -0.025355564406381
  20    0.0071995311410132
  21    0.0074080847866764
  22     -0.84537966619712
  23      0.11052787987446
  24     0.014982230595932
  25     0.014363435142018
  26     0.026426382770017
  27    0.0094954177251384
  28    -0.050794586210491
  29    -0.030058971927961
  30     -0.12718633835332
  31     0.018453853871287
  32     0.075120340829279
  33     0.015015705366656
  34      -0.1258529974129
  35     -0.14048274053383
  36     -0.04889094449215
  37    -0.0041920884946194
  38    -0.043918092360297
  39      0.15680410252955
  40      0.26257351333175
  41     0.030103371327998
  42    -0.015192449583086
  43     0.053985389035506
  44      0.39009782247076
  45      0.53265465744137
  46      0.02379995561775
  47     -0.21773836627415
  48     -0.18308287056273
  49     -0.93667324852162
  50       -1.507097346955
  51    -0.033824204831151
  52      0.18494344422156
  53     -0.10489454475329
  54      0.54727109853819
  55      0.98564769608219
  56    0.0044179915554936
  57    -0.083576636424598
  58      0.20539955209785
 Sym= A
 Ene=              13
 Spin= Alpha
 Occup=    0.00000
   1    -0.030633847153377
   2      0.01500199068971
   3       2.4706829658048
   4      0.31128985669515
   5    -0.0014738133079359
   6    -0.0046274706668208
   7       1.6774646591545
   8    -0.027743393273562
   9    -0.023957105036685
  10    -0.069039793616703
  11    -0.0060276055655583
  12    7.5432073198536e-05
  13      0.11472696452374
  14    -0.0012914014629179
  15      0.13236146173048
  16      0.24082757624363
  17      -1.2092248878268
  18     -0.57615460935867
  19    -0.023641142995328
  20    -0.0014443658175508
  21        3.448348115235
  22     0.089261103579185
  23     0.051892873357845
  24      0.25600070007786
  25    -0.016740253283922
  26     0.011645572236393
  27     -0.35875452412551
  28    0.0097205954908532
  29     -0.21794952220218
  30     -0.62757581035251
  31     -0.14314276768726
  32     -0.01035241947058
  33      0.10481792582904
  34     -0.16990180511506
  35     -0.54820870411621
  36     -0.15634432159266
  37    -0.092417741720563
  38    -0.039856698843614
  39      -0.1964968672585
  40     -0.62694499280343
  41     -0.15839140450146
  42      0.08531595856052
  43    -0.050429035763286
  44    -0.056469064880018
  45       0.3111625889948
  46    -0.013528406740601
  47     0.014667226755022
  48    -0.025229547409614
  49    -0.055463688707221
  50      0.30925836747059
  51    -0.016418014309322
  52     -0.02844857661919
  53    0.0051871007301816
  54    -0.064626331910681
  55       0.2919030293613
  56    -0.014913934217247
  57     0.018489010445454
  58     0.021982135999709
 Sym= A
 Ene=              14
 Spin= Alpha
 Occup=    0.00000
   1    0.0035384442787888
   2    0.0072282171575574
   3    -0.032201980608487
   4    0.0044518336693432
   5    0.0056249160551729
   6    -0.030472750852119
   7    -0.019134449331613
   8     0.094184736617916
   9     -0.86456302254957
  10    -0.028032465229784
  11     0.042953259570528
  12     0.014284071183977
  13    -0.011829024136108
  14    -0.016587864219165
  15    -0.0087104487007667
  16     -0.01688608037459
  17     0.065856964387537
  18     0.011612836183494
  19    -0.074883880812176
  20     -0.44243764107415
  21    -0.026330779474033
  22     0.035118837508124
  23       2.9605026545989
  24      0.25458752829786
  25       0.7060900972253
  26      0.14463879801058
  27      0.12100164033484
  28    -0.030373061626541
  29     -0.95553338484475
  30      -1.5530689046409
  31     0.042479771351646
  32    -0.029197245631611
  33      0.19722254663182
  34      0.40453663751192
  35      0.78637744526455
  36    0.0014024421964841
  37      0.16817542467411
  38     -0.15597258874329
  39      0.52309587041738
  40      0.75345572066293
  41    -0.027773027202344
  42     -0.23319471588309
  43     -0.15213780794834
  44      0.16762266623466
  45      0.26479670508391
  46    -0.034149783115298
  47     0.041451877002219
  48    -0.027495079067476
  49    -0.054623021048335
  50     -0.16363023083461
  51    -0.010155691742846
  52     0.034346149282783
  53     0.070661059361022
  54     -0.10754277472923
  55     -0.10868492334614
  56     0.046889274725886
  57    -0.047595911598567
  58     0.014961948760754
 Sym= A
 Ene=              15
 Spin= Alpha
 Occup=    0.00000
   1     0.004224510663959
   2    0.0068567201299603
   3    -0.090379274168606
   4    -0.0027821602379379
   5    -0.031437036262959
   6    -0.0081162303442619
   7     -0.05894239503769
   8     -0.86738567656146
   9      -0.1015552628148
  10     0.014235698247002
  11     0.010146548308138
  12     0.027313458355676
  13    0.0090140097187118
  14      0.04154041886898
  15    -0.010813537045346
  16    -0.020551834713868
  17      0.08836040610321
  18     0.026028316053568
  19     -0.46112375527848
  20     0.056849950542969
  21     -0.11061664174404
  22        2.951226855481
  23    -0.039631166682054
  24      0.10501651837038
  25    -0.00098099643006038
  26     -0.23242336925918
  27     0.046414186908286
  28      0.69271463998035
  29    -0.046676173773501
  30     0.035921987111183
  31     0.023494265000271
  32     -0.27794590258702
  33     0.019309850793041