           8
 Configuration:  381  Energy(u.a.)=   -214.16271814
C1       0.0000000000            0.0000003929            0.7625314764
C1       0.0000000000           -0.0000003929           -0.7625314764
H3       0.8820493404           -0.5092509547            1.1587310600
H3      -0.8820493404           -0.5092509547            1.1587310600
H3       0.8820493404            0.5092509547           -1.1587310600
H3      -0.8820493404            0.5092509547           -1.1587310600
H4       0.0000000000            1.0185034327            1.1587304620
H4       0.0000000000           -1.0185034327           -1.1587304620
