[Molden Format]
made by pyscf v[2.0.1]
[Atoms] (AU)
C   1   6     0.00000526099753    -0.00000380893198     1.44520516590352
C   2   6    -0.00000449017824     0.00000329284777    -1.44519418489398
H   3   1     0.00000840304516    -1.93991780941450     2.20859841123560
H   4   1     1.68001998490143     0.96995432722366     2.20859891824912
H   5   1    -0.00000342531757     1.93991753616010    -2.20858676428658
H   6   1    -1.68002254831492    -0.96994908115496    -2.20858776678629
H   7   1    -1.68000788687478     0.96995095670814     2.20860672943206
H   8   1     1.68000470174140    -0.96995541343823    -2.20859902955399
[GTO]
1 0
 s    8 1.00
                  6665  0.00069158396281299
                  1000  0.0053257961529341
                   228   0.027060721042034
                 64.71    0.10165684614077
                 21.06     0.2745748236174
                 7.495    0.44829431892377
                 2.797    0.28490261071525
                0.5215   0.015194859206082
 s    8 1.00
                  6665  -0.00029326965268655
                  1000  -0.0023180354739745
                   228  -0.011499786038565
                 64.71  -0.046826727009787
                 21.06   -0.12846616875047
                 7.495   -0.30126627246289
                 2.797   -0.25563070233011
                0.5215      1.093793361012
 s    1 1.00
                0.1596                   1
 p    3 1.00
                 9.439   0.056979251590039
                 2.002    0.31320721150073
                0.5456    0.76037674173753
 p    1 1.00
                0.1517                   1
 d    1 1.00
                  0.55                   1

2 0
 s    8 1.00
                  6665  0.00069158396281299
                  1000  0.0053257961529341
                   228   0.027060721042034
                 64.71    0.10165684614077
                 21.06     0.2745748236174
                 7.495    0.44829431892377
                 2.797    0.28490261071525
                0.5215   0.015194859206082
 s    8 1.00
                  6665  -0.00029326965268655
                  1000  -0.0023180354739745
                   228  -0.011499786038565
                 64.71  -0.046826727009787
                 21.06   -0.12846616875047
                 7.495   -0.30126627246289
                 2.797   -0.25563070233011
                0.5215      1.093793361012
 s    1 1.00
                0.1596                   1
 p    3 1.00
                 9.439   0.056979251590039
                 2.002    0.31320721150073
                0.5456    0.76037674173753
 p    1 1.00
                0.1517                   1
 d    1 1.00
                  0.55                   1

3 0
 s    3 1.00
                 13.01   0.033498726389998
                 1.962    0.23480080117413
                0.4446     0.8136829578829
 s    1 1.00
                 0.122                   1
 p    1 1.00
                 0.727                   1

4 0
 s    3 1.00
                 13.01   0.033498726389998
                 1.962    0.23480080117413
                0.4446     0.8136829578829
 s    1 1.00
                 0.122                   1
 p    1 1.00
                 0.727                   1

5 0
 s    3 1.00
                 13.01   0.033498726389998
                 1.962    0.23480080117413
                0.4446     0.8136829578829
 s    1 1.00
                 0.122                   1
 p    1 1.00
                 0.727                   1

6 0
 s    3 1.00
                 13.01   0.033498726389998
                 1.962    0.23480080117413
                0.4446     0.8136829578829
 s    1 1.00
                 0.122                   1
 p    1 1.00
                 0.727                   1

7 0
 s    3 1.00
                 13.01   0.033498726389998
                 1.962    0.23480080117413
                0.4446     0.8136829578829
 s    1 1.00
                 0.122                   1
 p    1 1.00
                 0.727                   1

8 0
 s    3 1.00
                 13.01   0.033498726389998
                 1.962    0.23480080117413
                0.4446     0.8136829578829
 s    1 1.00
                 0.122                   1
 p    1 1.00
                 0.727                   1

[5d]
[7f]
[9g]

[MO]
 Sym= A
 Ene=               0
 Spin= Alpha
 Occup=    1.00000
   1    6.7985227540324e-05
   2    -0.0025257895220364
   3    0.00046143987602505
   4    6.9143011300638e-09
   5    -4.5335115801417e-09
   6    0.0017603948618614
   7    -3.931843171126e-10
   8    1.3000942283817e-10
   9    -0.00037165184920154
  10    -0.00066522203381409
  11    -4.1611719292413e-09
  12    3.186524792812e-09
  13    -1.7330907197828e-10
  14    3.5579335707395e-10
  15       1.0026018077727
  16    -0.0038682555843032
  17    -0.014752359229379
  18    2.944063279161e-09
  19    -3.3342341039502e-09
  20    0.00094697052235049
  21    -1.4612716255796e-10
  22    5.6972715068798e-10
  23    -9.4710816728834e-05
  24    -0.00026574386099087
  25    -1.7013645044343e-09
  26    1.2055744188712e-09
  27    -6.3822342367078e-10
  28    -4.1003266300649e-11
  29    -0.00080418423495251
  30    0.00010536583629267
  31    1.4627342400181e-10
  32    -0.0001084740328637
  33    1.5138073094294e-05
  34    -0.00080418376228831
  35    0.00010536657031203
  36    9.3941455436076e-05
  37    5.4237127251146e-05
  38    1.5137755417186e-05
  39    -0.0044811821717402
  40    0.00047424433885627
  41    8.9444075337227e-10
  42    0.00099101268932371
  43    -0.00028233714027285
  44    -0.0044811774606292
  45    0.00047424419747631
  46    -0.00085824323840851
  47    -0.00049550387003472
  48    -0.00028233724515456
  49    -0.00080418575906219
  50    0.0001053670391238
  51    -9.3941860538743e-05
  52    5.4237366957141e-05
  53    1.5137254163021e-05
  54    -0.0044811779936359
  55     0.000474243857117
  56    0.00085823946582421
  57    -0.00049550711762483
  58    -0.00028234298573325
 Sym= A
 Ene=               1
 Spin= Alpha
 Occup=    1.00000
   1        1.002601805427
   2    -0.0038680829498284
   3     -0.01475239202563
   4    -3.8004463753388e-09
   5    4.0330233675337e-09
   6    -0.00094708984501186
   7    1.4033950362435e-09
   8    -1.4078740709939e-09
   9    9.4736823421936e-05
  10    -0.00026569949856997
  11    -8.7243170073265e-10
  12    5.4945922766026e-10
  13    -7.7471379546648e-10
  14    2.7210300228526e-10
  15                     0
  16    -0.0025255284854981
  17    0.00046244223688634
  18    -4.577203574367e-09
  19    2.8432840000536e-09
  20    -0.0017604573457106
  21     2.07626708733e-09
  22    -1.4590312858884e-09
  23    0.00037165969906259
  24    -0.00066520375492295
  25    -3.617070633077e-09
  26    2.7754521310121e-09
  27    1.759724872062e-10
  28    -1.5239104277883e-10
  29    -0.0044811285374526
  30    0.00047423623590957
  31    1.1655385964157e-09
  32    -0.00099100528840018
  33    0.00028233653479009
  34    -0.0044811230979175
  35    0.0004742364216199
  36    0.00085823506712677
  37    0.00049550322460917
  38    0.00028233645138736
  39    -0.0008038828388427
  40    0.00010533283613085
  41    1.7780337259235e-10
  42    0.00010840716491868
  43    -1.5118717318806e-05
  44    -0.00080388189420686
  45    0.00010533354750216
  46    -9.3883476992082e-05
  47    -5.4203576446214e-05
  48    -1.5118571158332e-05
  49    -0.0044811186934371
  50    0.00047423894815402
  51    -0.00085823436569526
  52    0.00049550107457695
  53    0.00028234056664832
  54    -0.00080388023359106
  55    0.00010533468520752
  56    9.3883076960715e-05
  57    -5.4203671430512e-05
  58    -1.5119227776608e-05
 Sym= A
 Ene=               2
 Spin= Alpha
 Occup=    1.00000
   1                     0
   2    -0.028905882849293
   3    -0.020839361948368
   4    8.5810420639682e-08
   5    -0.027388354976805
   6     0.041233126839147
   7    -1.0154279672184e-09
   8    -0.020506775424272
   9     0.021806277592502
  10    0.0023536990566335
  11    -4.466215389145e-09
  12    -0.018503323937404
  13    -0.0053469596938548
  14    -6.808293368624e-08
  15                     0
  16      0.15495987518165
  17     0.091021488148717
  18    2.2550191523753e-07
  19       0.3597307255682
  20      -0.1308301921481
  21    9.6458357647848e-08
  22      0.17099858084519
  23     -0.06382144882883
  24    -0.0082428357655866
  25    -1.0688550387525e-08
  26    -0.016018987743534
  27    -0.019340164815096
  28    1.2535427443957e-08
  29      0.05151651382877
  30     0.057355068314394
  31    -2.8191074577519e-09
  32    -0.00021095334231897
  33    -0.0002679811226916
  34    -0.024468040740504
  35    -0.018708531154067
  36    0.00064369075403127
  37    -0.0011298920713461
  38    0.0027250679660513
  39      0.43356671208731
  40      0.16926203807207
  41    -1.3299587857214e-08
  42     -0.02876868154803
  43      0.01265980698111
  44    -0.038939705934702
  45    -0.042706566440899
  46    0.00041561426408872
  47     0.011339053694861
  48    -0.0035331967740884
  49    -0.024467850341464
  50    -0.018708349837207
  51    -0.00064367778844037
  52    -0.0011298940204743
  53     0.002725069980859
  54    -0.038939704764865
  55    -0.042706555681874
  56    -0.00041559416645291
  57     0.011339053912848
  58    -0.0035331927695391
 Sym= A
 Ene=               3
 Spin= Alpha
 Occup=    1.00000
   1                     0
   2      0.15357315750738
   3     0.089988709440406
   4     -0.31203279231042
   5       0.1786037860883
   6      0.13337159529667
   7     -0.14832539698782
   8     0.084476357524653
   9     0.065156994239514
  10    -0.0081228153530705
  11    -0.013895149206054
  12    0.0069764778867826
  13     0.009383278973093
  14    -0.016775751949142
  15                     0
  16    -0.020193069021452
  17    -0.015727792270103
  18     0.023756694072451
  19    0.0066175268199661
  20    -0.048694047958024
  21     0.017787740371351
  22    -0.00060415557748455
  23    -0.025448669953345
  24    0.0018917460914445
  25    -0.016049959844536
  26    0.0083609753231617
  27    0.0015845003540141
  28    -0.0046379135950548
  29    -0.036089958038367
  30    -0.039532816469635
  31    -0.0096274436441396
  32     0.006027135131486
  33    0.0035237495246724
  34     -0.04038485961037
  35    -0.043832259208228
  36    -0.010007332104672
  37    0.0052541929657942
  38    0.0036929263142932
  39                     0
  40    -0.0091708616645266
  41    0.0013024206510359
  42    -0.0016336296654402
  43    -0.0020138407710326
  44    -0.026708177793408
  45    -0.021152390462146
  46    0.00068119850653645
  47    -0.0004832473941898
  48    -0.0029291350487715
  49      0.43287572071353
  50      0.16847494432967
  51     0.024917743912071
  52      -0.0144711193943
  53    -0.012526098954112
  54     0.049397758631108
  55     0.055032781149839
  56    0.00015949442436089
  57    0.00053528389717782
  58    6.8694442464658e-05
 Sym= A
 Ene=               4
 Spin= Alpha
 Occup=    1.00000
   1                     0
   2    -0.022173604722881
   3    -0.017270351574335
   4    0.0045244631514905
   5     0.022369411904288
   6     0.053470251104163
   7    0.0086740943939736
   8     0.013696813101261
   9     0.027944748035304
  10    0.0020770864937208
  11     0.015259188758978
  12    0.0080675260984768
  13    0.0027879030161893
  14     0.003618684414048
  15                     0
  16      0.16863624088679
  17     0.098815246377567
  18     -0.31192840272944
  19     -0.14802892158406
  20     -0.14645124645904
  21     -0.14787331783585
  22    -0.070598152843427
  23    -0.071546752590191
  24    -0.0089196544469138
  25     0.012961286947392
  26    0.0071282029158308
  27    0.0080788605218016
  28     0.016561833380055
  29    -0.022196173681769
  30    -0.016088081344434
  31    0.00071153460044327
  32    0.00036198450968498
  33    0.0029355268341936
  34     0.047111485158849
  35     0.053291745381482
  36    -0.00037821267009497
  37    0.00032961917315856
  38    0.00020547619198297
  39                     0
  40    -0.028237628621093
  41    -0.009588933761108
  42    -0.0087659850111751
  43    -0.0025353306076147
  44      0.43098773470019
  45      0.16510567395233
  46     0.025143287623364
  47     0.015464866790344
  48     0.012234823282922
  49                     0
  50    -0.010070474801186
  51    0.0021465895171129
  52    0.00013024602586825
  53    0.0022113501688751
  54    -0.039629702383546
  55    -0.043410319578003
  56    -0.010115405285046
  57    -0.0042836881175713
  58    -0.0038693065228031
 Sym= A
 Ene=               5
 Spin= Alpha
 Occup=    1.00000
   1                     0
   2      0.17209146993819
   3      0.10131031909187
   4    -0.026051418085782
   5     -0.34456625175031
   6      0.14145420666461
   7    -0.012045567736997
   8     -0.16276662518736
   9     0.068905054562658
  10    -0.0092018345329963
  11    -0.00037995315851296
  12    -0.012981225095322
  13    -0.017995269706163
  14    -0.0012258011545554
  15                     0
  16    -0.040852219675766
  17    -0.028241174038746
  18    -0.014160242074772
  19    -0.022652017408445
  20    -0.037687284009402
  21    -0.0061631299926405
  22    -0.0035176981630477
  23    -0.020245166011405
  24    0.0030704903881215
  25    -0.00068050612480031
  26    -0.015726264159618
  27    -0.0025336302890194
  28    0.00046733588317605
  29      0.42840515587929
  30      0.16024034588325
  31    -0.000774225276965
  32     0.029667158967101
  33    -0.012331176674384
  34    -0.037427836861502
  35    -0.041902802821816
  36    -0.0013606298390105
  37     -0.01088008219502
  38    0.0035698246944043
  39                     0
  40     0.035456421537035
  41    -0.00038709461468361
  42    0.0030811819046069
  43    -0.0015521650486924
  44                     0
  45    -0.0070257955476311
  46    0.0006586674584555
  47    0.00054051345484538
  48    -0.0019458818309298
  49                     0
  50    -0.027300346500627
  51    0.0027083830380378
  52    -0.012552125555243
  53    0.0023074201025656
  54    -0.017972104491727
  55    -0.011411418936335
  56    0.00019074993899163
  57    -0.00039688521326161
  58    -0.002527717627384
 Sym= A
 Ene=               6
 Spin= Alpha
 Occup=    1.00000
   1                     0
   2    -0.044591677494907
   3    -0.030826305782777
   4     0.011343769950652
   5    -0.021693097388337
   6     0.041137119877621
   7    -0.00057561525484835
   8    -0.0068149274249344
   9     0.022098455255141
  10    0.0033517207320156
  11     -0.01327032517135
  12     0.007105754452066
  13    0.0006431167462111
  14    -0.0024780987384475
  15                     0
  16      0.18784429934399
  17      0.11058394328675
  18      0.28418668217479
  19     -0.16537414618666
  20     -0.15440476736034
  21      0.13439822760164
  22    -0.077893099212359
  23    -0.075213546833619
  24    -0.010044033318844
  25    -0.011061367319835
  26    0.0057075080031842
  27    0.0085194869014412
  28     -0.01492144300076
  29                     0
  30    -0.0039433109107717
  31    -0.00017322764099697
  32    0.00057369726165572
  33    0.0020894762181618
  34    -0.019617060731198
  35    -0.012455843761516
  36    0.00045751810983483
  37    1.4296304872925e-06
  38    0.0027591008481757
  39                     0
  40    -0.028010444594797
  41    0.0087077409178412
  42    -0.0092456480810988
  43    -0.0025021376193644
  44                     0
  45    -0.029799496046743
  46     0.012509085955688
  47    -0.0028448225745918
  48    -0.0025187141591491
  49                     0
  50     0.034976394588316
  51    -0.002815130192067
  52    0.0011625689709159
  53    0.0017288009561598
  54      0.42676704777185
  55      0.15718070586467
  56    -0.026298925567455
  57     0.015171696712394
  58     0.012065598766495
 Sym= A
 Ene=               7
 Spin= Alpha
 Occup=    1.00000
   1                     0
   2       0.1859912791171
   3      0.10928266173929
   4      0.28501042216958
   5      0.16455071431725
   6      0.15645921658048
   7       0.1345144491772
   8     0.077661798572435
   9     0.076309113771549
  10    -0.0099005555855158
  11     0.010462246262763
  12    0.0060404161542095
  13    0.0085581761510448
  14     0.014823225886456
  15                     0
  16    -0.035995161510185
  17    -0.025770391187513
  18     0.024432483183781
  19     0.014106325816792
  20    -0.048285678218067
  21    0.0056080626345998
  22    0.0032378916596335
  23    -0.025582789899259
  24    0.0028929407474659
  25     0.012775414135027
  26    0.0073758800452172
  27     0.001035915198361
  28    0.0017941559585727
  29                     0
  30    -0.028221516704674
  31    0.0087090039578582
  32    0.0092818201021047
  33    0.0026008736752199
  34      0.42631591354169
  35      0.15677379532651
  36    -0.026305789619557
  37    -0.015187679053945
  38    -0.011951234148696
  39                     0
  40    -0.0052363914387256
  41    0.00022726344494431
  42    -0.000999745265824
  43    -0.0022068197901327
  44                     0
  45     0.033642135059924
  46    -0.0022425161106626
  47    -0.0012947024023042
  48    -0.0018465098208952
  49                     0
  50    -0.028221525671963
  51      0.01239279347427
  52    0.0029013168136472
  53    0.0026008606536935
  54                     0
  55    -0.0052363152338478
  56    -0.00075216909372578
  57    0.00069669991583845
  58    -0.0022068195164729
 Sym= A
 Ene=               8
 Spin= Alpha
 Occup=    1.00000
   1                     0
   2     -0.22443974638175
   3     -0.16405286911334
   4    9.1619979740812e-07
   5    -6.3431665298272e-07
   6      0.33670497071577
   7    3.726586562739e-07
   8    -2.3834224588326e-07
   9      0.15520966480251
  10    -0.031075409632049
  11    -1.8031664221707e-07
  12    1.3485240732858e-07
  13    1.1606379853018e-09
  14    -2.8233594351613e-09
  15                     0
  16     -0.22443983405288
  17     -0.16405300598256
  18    -1.1597740115808e-06
  19    8.1281405554662e-07
  20     -0.33670493393378
  21    -5.218665907887e-07
  22    3.4832438488872e-07
  23     -0.15520967918631
  24    -0.031075393831105
  25    -1.9435956865017e-07
  26    1.4577600268139e-07
  27    -5.1943617392157e-10
  28    -1.304730059187e-09
  29                     0
  30     0.031250746630635
  31    2.5070057334658e-08
  32    -0.0039227975082278
  33     0.009306458785627
  34                     0
  35     0.031250779712795
  36    0.0033972537132471
  37    0.0019613854348965
  38    0.0093064566476259
  39                     0
  40      0.03125075577353
  41    -2.5151429893438e-08
  42    0.0039228039718872
  43    -0.0093064549334861
  44                     0
  45     0.031250773819096
  46    -0.0033972672489436
  47    -0.001961366856494
  48    -0.0093064533989848
  49                     0
  50     0.031250907531986
  51    -0.0033972242087086
  52    0.0019613851216326
  53    0.0093064778989004
  54                     0
  55     0.031250818839548
  56    0.0033971990171769
  57    -0.0019613820625532
  58    -0.0093064771166576
 Sym= A
 Ene=               9
 Spin= Alpha
 Occup=    0.00000
   1     -0.86275982620756
   2      -1.5603866391816
   3        7.923303391999
   4    -7.047399541456e-09
   5    -1.466734391778e-07
   6    -0.038703869008326
   7    -9.0552106285379e-06
   8    7.3175960724226e-06
   9      -1.9575388830455
  10      0.19745481066981
  11    1.6071678491445e-06
  12    -1.1620836371977e-06
  13    -7.6576049816075e-07
  14    2.8989232331654e-07
  15      0.44411992364185
  16      0.76797732315448
  17      -4.7855396893996
  18    -4.2162533484724e-07
  19    2.015771291169e-07
  20     -0.14479662596733
  21    -9.2241875725569e-06
  22    7.173620935282e-06
  23      -2.7615779364186
  24     -0.34309962668404
  25    -1.6607931555815e-06
  26    1.0885823039087e-06
  27    3.3223272626864e-07
  28    -3.7924724374388e-08
  29     -0.61922268345055
  30     -0.73116748772452
  31    8.5119264576798e-07
  32     -0.19672957259473
  33      0.13521626173008
  34     -0.61922257086241
  35       -0.731167659052
  36      0.17037304829141
  37     0.098364097482579
  38      0.13521612887042
  39      0.24847277563679
  40    -0.056008642988861
  41    5.6222266579204e-07
  42     0.034959547052197
  43      0.12320454721586
  44      0.24847286406173
  45    -0.056008063386663
  46    -0.030275564039151
  47    -0.017480317833041
  48      0.12320443077429
  49     -0.61922302668734
  50       -0.731169571832
  51     -0.17037210379671
  52      0.09836392504416
  53      0.13521646426236
  54      0.24847311871738
  55     -0.05600802279179
  56     0.030276199849944
  57    -0.017480383400065
  58      0.12320425827017
 Sym= A
 Ene=              10
 Spin= Alpha
 Occup=    0.00000
   1    -0.096577492571131
   2     -0.21890791944194
   3                     0
   4    2.2307701637211e-07
   5    -1.429164249567e-07
   6      0.15234706416449
   7    7.368370309487e-06
   8    -5.2214460911486e-06
   9       1.9815090180441
  10     -0.28085467680427
  11    -1.322865747787e-06
  12    8.3509032600318e-07
  13    -8.2618049316692e-08
  14    2.2533089734648e-08
  15     -0.74594833681074
  16      -1.3758404295189
  17       6.3148508943955
  18    -1.4163835778739e-07
  19    1.9379618347919e-07
  20    -0.061168243038397
  21    8.0941732083288e-07
  22    -1.4494253413693e-06
  23      0.36335284670191
  24    -0.012260030312983
  25    2.2549649251187e-08
  26    -2.7338293293472e-08
  27    -5.5311885003979e-07
  28    1.9375591069032e-09
  29     -0.15750009216343
  30      -0.6243710785087
  31    -2.2652807543582e-07
  32     -0.19295019427804
  33    -0.052116006410216
  34     -0.15749986135963
  35     -0.62437017034461
  36      0.16709930811814
  37     0.096475789705246
  38    -0.052115872214766
  39      -0.5886464338736
  40     -0.95984852367452
  41    3.4153415488498e-07
  42      0.27333158470259
  43    -0.076289434510005
  44     -0.58864623294765
  45     -0.95984818709124
  46     -0.23671239256677
  47     -0.13666502324393
  48    -0.076289499482801
  49     -0.15749935817599
  50      -0.6243684049344
  51     -0.16709992149973
  52     0.096475132811933
  53    -0.052114664398298
  54     -0.58864600789833
  55     -0.95984828007839
  56      0.23671133030044
  57     -0.13666588322234
  58    -0.076291182221582
 Sym= A
 Ene=              11
 Spin= Alpha
 Occup=    0.00000
   1    -3.8845451435917e-07
   2    -6.8063458369208e-07
   3                     0
   4    -8.7990380104379e-08
   5    -0.071893588203071
   6    8.8209345806149e-08
   7    2.6695872565879e-06
   8       3.5111810381304
   9    -1.4298204833859e-06
  10    1.4803728796708e-06
  11    -8.7149522880444e-07
  12      0.33624470281948
  13      0.51252684079773
  14    2.0502836550372e-06
  15    -6.515479416046e-07
  16    -1.3117639908428e-06
  17                     0
  18    1.7946248421892e-07
  19     0.088146440914978
  20    -4.469011221582e-07
  21    1.1429829679857e-06
  22      -1.3561040125897
  23    -8.4978609094266e-06
  24    -1.2903863050241e-06
  25    -3.29328654282e-07
  26     -0.14522425098406
  27     0.029031163209169
  28    -1.0711757397269e-06
  29       0.9545796416566
  30       2.2804653356146
  31    -1.3687263437689e-06
  32      0.40563195883657
  33      -0.2488977529032
  34     -0.47729067698902
  35       -1.140232611103
  36      0.33938175994976
  37     -0.18219438765622
  38      0.12444893498423
  39      0.22115731000914
  40      0.32916267698962
  41    -3.7620423343084e-07
  42     0.024310378244296
  43     -0.07398561670712
  44     -0.11057906133055
  45     -0.16458213174752
  46    -0.058078935586177
  47      0.12490524672961
  48     0.036993494516841
  49     -0.47728806575168
  50      -1.1402254901521
  51     -0.33938037028027
  52     -0.18219609868329
  53      0.12444962087948
  54     -0.11058026372361
  55     -0.16458708649579
  56       0.0580799798576
  57      0.12490460709813
  58     0.036992512012209
 Sym= A
 Ene=              12
 Spin= Alpha
 Occup=    0.00000
   1    -5.120610680274e-07
   2    -1.103939995966e-06
   3                     0
   4     0.088146367378152
   5    1.2866374108653e-07
   6    6.0137488498218e-07
   7      -1.3560982149663
   8                     0
   9    1.2059202847682e-05
  10    -2.0613988609483e-06
  11      0.14522437097894
  12    1.7261273978895e-07
  13    7.3541614057738e-07
  14    -0.029031306076308
  15    -5.7679369213542e-08
  16    -1.5708558765197e-07
  17                     0
  18     -0.07189367029787
  19    -4.2332706466503e-08
  20    -1.7824433306267e-07
  21       3.5111763478648
  22    9.3402712770576e-07
  23    -1.4290683710671e-06
  24    3.3655812015043e-06
  25     -0.33624719321654
  26    1.6761374169311e-06
  27    -4.1167917726478e-06
  28     -0.51252628139343
  29    -5.6752117470318e-07
  30    -2.0902768232284e-06
  31      0.15843684607215
  32    -5.7655649401358e-07
  33    -6.7351384178919e-07
  34      0.19152665846844
  35      0.28505763959947
  36     0.057842696939503
  37    -0.058078257694678
  38     0.064073498021301
  39    -1.1353552832675e-06
  40    -1.7645846921991e-06
  41     -0.37813670854745
  42    6.192817307992e-07
  43    1.5783639900921e-07
  44      0.82669101547286
  45       1.9749426554428
  46       0.2096920053147
  47      0.33938097451483
  48      0.21555271030101
  49     -0.19152799420005
  50     -0.28506502966217
  51     0.057840587979857
  52     0.058079353032331
  53    -0.064074214125756
  54     -0.82668727475854
  55      -1.9749313926109
  56       0.2096862311655
  57     -0.33938158448624
  58     -0.21555466404698
 Sym= A
 Ene=              13
 Spin= Alpha
 Occup=    0.00000
   1     -0.15951773607671
   2     -0.34429499621133
   3                     0
   4    2.4863228835658e-07
   5    -3.6266103610675e-07
   6       0.2380628921154
   7    1.1805512293092e-05
   8                     0
   9       2.5668001231672
  10      -0.3797311596752
  11    -2.4164640209102e-06
  12    2.597516823069e-06
  13    1.0794472357105e-06
  14    -1.1734945309955e-08
  15    -0.012662040640107
  16    -0.038289128981196
  17                     0
  18    -1.3308315074198e-07
  19    2.4652269864352e-07
  20     -0.12232638491853
  21                     0
  22    -2.6249920178197e-06
  23       3.3422152090196
  24      0.44868905492791
  25    3.8700812014932e-06
  26    -3.2873909127523e-06
  27    -9.7183613061938e-07
  28    1.6358036919801e-06
  29     -0.19250321857208
  30      -1.0425325026846
  31    -4.1295025039852e-07
  32     -0.24482315985814
  33    0.0037252608358026
  34     -0.19250637197586
  35      -1.0425397954499
  36      0.21202431046428
  37       0.1224124581366
  38    0.0037263849681469
  39      0.28413469951092
  40       1.0298178226664
  41    1.2090862413707e-07
  42     -0.30141005788512
  43     -0.17321121378214
  44       0.2841346278296
  45       1.0298175585577
  46      0.26102963485579
  47       0.1507045312928
  48     -0.17321061593106
  49     -0.19250522918253
  50      -1.0425384854053
  51     -0.21202507654452
  52      0.12241178522607
  53    0.0037283172344471
  54      0.28414017503692
  55       1.0298298692481
  56     -0.26103163728561
  57       0.1507076597928
  58      -0.1732075483656
 Sym= A
 Ene=              14
 Spin= Alpha
 Occup=    0.00000
   1    1.6643822213404e-07
   2    3.9387453449309e-07
   3                     0
   4    -8.7598773589339e-08
   5     0.065458740654792
   6    -2.6919429813605e-07
   7    -3.9631125625196e-06
   8                     0
   9    -7.6605997416409e-06
  10    1.881549956542e-06
  11    -6.8549177545708e-07
  12      0.29823144326442
  13      0.18312926293442
  14    5.4395699127097e-07
  15    6.6827844697027e-08
  16    5.563395236644e-08
  17                     0
  18    1.4600591279016e-08
  19    -0.041033119301812
  20    -2.0251618694567e-07
  21                     0
  22       3.2387295242718
  23                     0
  24    -2.4782663312469e-06
  25    2.2483126519755e-06
  26      -0.4253382901081
  27       -0.543486579277
  28    1.7480944239625e-06
  29        0.159934546581
  30      0.59801085855468
  31    -5.3729800875777e-07
  32      0.19619937651103
  33       -0.184426438739
  34    -0.079965679246934
  35     -0.29899862817785
  36     0.079138635932815
  37     0.059124411633304
  38     0.092213298677763
  39     -0.94227952916194
  40       -2.334477721534
  41    5.4058253048988e-07
  42      0.44993391731512
  43     -0.30081461530054
  44      0.47113717421926
  45       1.1672310668893
  46      0.34361178971396
  47     -0.14522390496142
  48      0.15040610565638
  49    -0.079967052556829
  50     -0.29900465917135
  51    -0.079138706500379
  52     0.059124539791873
  53     0.092214599097964
  54      0.47114079370634
  55       1.1672389712305
  56     -0.34361248128134
  57     -0.14522111657604
  58      0.15040956549591
 Sym= A
 Ene=              15
 Spin= Alpha
 Occup=    0.00000
   1    5.2021270990218e-07
   2    1.0811360547263e-06
   3                     0
   4    -0.041033497104602
   5    3.1350506300549e-08
   6    -8.5279045232492e-07
   7        3.238727137635
   8                     0
   9    -3.0310996112906e-06
  10    -2.0967311602203e-06
  11      0.42533922349484
  12    -1.3081092094789e-06
  13    -8.9899513904744e-07
  14      0.54348595567737
  15    8.9441126397063e-07
  16    1.8649043962676e-06
  17                     0
  18     0.065458424934081
  19    -8.5484293879104e-08
  20    9.7753656615432e-07
  21                     0
  22                     0
  23                     0
  24    1.7027690972657e-06
  25      -0.2982322964583
  26    5.2853473993402e-07
  27    -2.0877115067791e-06
  28     -0.18312792167801