[Molden Format]
made by pyscf v[2.0.1]
[Atoms] (AU)
C   1   6     0.00000000000000     0.00000000000000     0.00000000000000
C   2   6     2.88195139270757     0.00000000000000     0.00000000000000
H   3   1     3.63065534584939     0.00000000000000     1.92469232395612
H   4   1     3.63065534584939    -1.66683244701491    -0.96234616197806
H   5   1     3.63065534584939     1.66683244701491    -0.96234616197806
H   6   1    -0.74870395314182    -0.96234616197806    -1.66683244701490
H   7   1    -0.74870395314182     1.92469232395612     0.00000000000000
H   8   1    -0.74870395314182    -0.96234616197806     1.66683244701490
[GTO]
1 0
 s    8 1.00
                  6665  0.00069158396281299
                  1000  0.0053257961529341
                   228   0.027060721042034
                 64.71    0.10165684614077
                 21.06     0.2745748236174
                 7.495    0.44829431892377
                 2.797    0.28490261071525
                0.5215   0.015194859206082
 s    8 1.00
                  6665  -0.00029326965268655
                  1000  -0.0023180354739745
                   228  -0.011499786038565
                 64.71  -0.046826727009787
                 21.06   -0.12846616875047
                 7.495   -0.30126627246289
                 2.797   -0.25563070233011
                0.5215      1.093793361012
 s    1 1.00
                0.1596                   1
 p    3 1.00
                 9.439   0.056979251590039
                 2.002    0.31320721150073
                0.5456    0.76037674173753
 p    1 1.00
                0.1517                   1
 d    1 1.00
                  0.55                   1

2 0
 s    8 1.00
                  6665  0.00069158396281299
                  1000  0.0053257961529341
                   228   0.027060721042034
                 64.71    0.10165684614077
                 21.06     0.2745748236174
                 7.495    0.44829431892377
                 2.797    0.28490261071525
                0.5215   0.015194859206082
 s    8 1.00
                  6665  -0.00029326965268655
                  1000  -0.0023180354739745
                   228  -0.011499786038565
                 64.71  -0.046826727009787
                 21.06   -0.12846616875047
                 7.495   -0.30126627246289
                 2.797   -0.25563070233011
                0.5215      1.093793361012
 s    1 1.00
                0.1596                   1
 p    3 1.00
                 9.439   0.056979251590039
                 2.002    0.31320721150073
                0.5456    0.76037674173753
 p    1 1.00
                0.1517                   1
 d    1 1.00
                  0.55                   1

3 0
 s    3 1.00
                 13.01   0.033498726389998
                 1.962    0.23480080117413
                0.4446     0.8136829578829
 s    1 1.00
                 0.122                   1
 p    1 1.00
                 0.727                   1

4 0
 s    3 1.00
                 13.01   0.033498726389998
                 1.962    0.23480080117413
                0.4446     0.8136829578829
 s    1 1.00
                 0.122                   1
 p    1 1.00
                 0.727                   1

5 0
 s    3 1.00
                 13.01   0.033498726389998
                 1.962    0.23480080117413
                0.4446     0.8136829578829
 s    1 1.00
                 0.122                   1
 p    1 1.00
                 0.727                   1

6 0
 s    3 1.00
                 13.01   0.033498726389998
                 1.962    0.23480080117413
                0.4446     0.8136829578829
 s    1 1.00
                 0.122                   1
 p    1 1.00
                 0.727                   1

7 0
 s    3 1.00
                 13.01   0.033498726389998
                 1.962    0.23480080117413
                0.4446     0.8136829578829
 s    1 1.00
                 0.122                   1
 p    1 1.00
                 0.727                   1

8 0
 s    3 1.00
                 13.01   0.033498726389998
                 1.962    0.23480080117413
                0.4446     0.8136829578829
 s    1 1.00
                 0.122                   1
 p    1 1.00
                 0.727                   1

[5d]
[7f]
[9g]

[MO]
 Sym= A
 Ene=               0
 Spin= Alpha
 Occup=    1.00000
   1          1.0026280367
   2    -0.00040335063013382
   3    -0.012735918180687
   4    0.00097026709836533
   5    -1.6617211513743e-07
   6    4.2075600324311e-08
   7    -0.0001608187287316
   8    -7.9769196631861e-08
   9    1.8978796134953e-08
  10    8.9891264680305e-05
  11    -1.1027377147213e-09
  12    -2.6785614027806e-09
  13    -0.00015567830404265
  14    9.6191214087528e-09
  15    -1.9269797365111e-05
  16    -0.00045336983303283
  17    0.0019147725800858
  18    0.0011439288745581
  19    6.1193253535081e-08
  20    1.2259233897446e-08
  21    -0.00058481404528991
  22    3.3301854104247e-08
  23    2.9757361835009e-09
  24    0.00025458470659459
  25    -1.4417940534491e-09
  26    -4.3170533831582e-09
  27    -0.00044095095853405
  28    1.0462315269917e-08
  29    2.4881810387057e-05
  30    0.00017951181590733
  31    -3.0804475887782e-05
  32    5.6839859351118e-06
  33    -1.0829816710411e-05
  34    2.4813145105305e-05
  35    0.00017947393793581
  36    -3.0801783821519e-05
  37    6.5360562077019e-06
  38    1.0333584381426e-05
  39    2.4925949599069e-05
  40    0.00017954437745408
  41    -3.0805449287516e-05
  42    -1.2219938019124e-05
  43    4.9595552384985e-07
  44    -0.002910310111747
  45    0.00074016811188717
  46    -0.00021494168855956
  47    -0.00039589062063312
  48    -0.00068682833328471
  49    -0.002910501943403
  50    0.00074007729348559
  51    -0.0002149480252341
  52    0.00079276491326765
  53    5.6930789207915e-07
  54    -0.0029102474797338
  55    0.00074019439736963
  56    -0.00021493936707105
  57    -0.00039687183327566
  58    0.00068625827834862
 Sym= A
 Ene=               1
 Spin= Alpha
 Occup=    1.00000
   1    -1.9278245802953e-05
   2    -0.00045308460947603
   3    0.0019149671407985
   4    -0.0011436846805947
   5    -1.1734558945642e-08
   6    4.9171446412758e-08
   7    0.00058492611803883
   8    -9.8368326918169e-09
   9    2.401380783295e-08
  10    0.00025457350113212
  11    -5.3921683300287e-09
  12    -3.6033603195348e-09
  13    -0.00044093247514937
  14    6.3996126010823e-09
  15       1.0026280317945
  16    -0.00040324162140297
  17     -0.01273582703657
  18    -0.00097059742822011
  19    1.2412078044775e-07
  20    -6.9717677270293e-08
  21    0.00016066644990565
  22    5.8281053837484e-08
  23    -3.4230704620182e-08
  24    8.9864302256668e-05
  25    -5.1750019623325e-09
  26    -6.8631037150229e-09
  27    -0.00015565683329636
  28    5.5573976581914e-09
  29    -0.0029104696789587
  30    0.00074007895798754
  31    0.00021493847119606
  32    5.7186345766074e-07
  33    0.00079276359726392
  34    -0.0029104682842693
  35    0.00074008391648952
  36    0.00021493859054179
  37    -0.00068683567720027
  38    -0.00039589341173326
  39    -0.0029102795218829
  40    0.00074016810371691
  41    0.00021493207804279
  42    0.0006862617938422
  43    -0.00039686929822078
  44    2.4902824543358e-05
  45    0.00017947946884175
  46    3.0812555403331e-05
  47    1.0338724121608e-05
  48    6.5459489822377e-06
  49    2.4916240921493e-05
  50    0.00017947782722405
  51    3.0813454305646e-05
  52    -1.0839670960799e-05
  53    5.6835560479409e-06
  54    2.4986035634841e-05
  55    0.00017952606250756
  56    3.0815591579603e-05
  57    5.0041055137706e-07
  58    -1.2229728386687e-05
 Sym= A
 Ene=               2
 Spin= Alpha
 Occup=    1.00000
   1    -0.0024457761790536
   2    -0.020093676388844
   3    -0.013031036578172
   4    -0.024276380399428
   5    0.00084703093622435
   6    0.00043174109844726
   7    -0.014283718057978
   8    0.0036834289324579
   9    -0.010161160252225
  10    -0.00080879013587936
  11     0.016657108940841
  12    0.0019477096293528
  13    0.0048977124166125
  14    0.00022747154861609
  15    -0.0050886221762874
  16      0.18311813083236
  17      0.10620835609644
  18      0.12360563769113
  19    0.0011252011604089
  20      0.34721717944975
  21       0.0606506299572
  22    0.00017838149215133
  23       0.1631880325076
  24     0.019303906882078
  25     0.013904487329276
  26    0.00046864681105371
  27    0.0025742595492848
  28    7.2792730745485e-05
  29      0.43305522761453
  30      0.16012977752777
  31    -0.012755381257614
  32    0.00015253213184355
  33    -0.030152502669286
  34    -0.019870331020618
  35    -0.037223665545797
  36    0.0025653847648365
  37    0.0020901025940289
  38     0.011981745614114
  39    -0.019403160372064
  40    -0.036531308730957
  41    0.0025869465886698
  42    -0.002233982991858
  43     0.012130695779655
  44     0.020964211457211
  45     0.037240333041575
  46    -0.00058596840053255
  47    -0.00051781987673674
  48    -0.00098385817863712
  49    -0.00044818731050014
  50    0.0020460011942744
  51    -0.0018250541590916
  52    -0.00018722953853366
  53    -0.00048355476904361
  54    -0.021286206895458
  55    -0.024472392315183
  56    -0.0014606459788692
  57    0.00021622903373314
  58    -0.00085822561961144
 Sym= A
 Ene=               3
 Spin= Alpha
 Occup=    1.00000
   1    -0.0050885451455587
   2       0.1831191713434
   3      0.10620911939113
   4     -0.12360391420506
   5      0.34721709962116
   6    0.0011276228751905
   7    -0.060649826750586
   8      0.16318799666017
   9    0.00017950162521546
  10    -0.011881393963664
  11    -7.2863722161953e-05
  12    0.00046852318568192
  13    -0.015430420247199
  14    -0.013904474002123
  15    -0.0024459523831967
  16    -0.020093062674534
  17    -0.013030519927752
  18     0.024274448848523
  19    0.00043193525318769
  20    0.00084757725761627
  21     0.014282817279494
  22    -0.010161090269884
  23    0.0036836129143725
  24    -0.0038372178785036
  25    -0.00022756593149157
  26    0.0019476874688541
  27    0.0031494400548566
  28    -0.016657095766897
  29    -0.00044820952761522
  30    0.0020457358726778
  31    0.0018250015939653
  32    -0.00048354759277073
  33    -0.00018724155014098
  34     0.020963579859372
  35     0.037240041637023
  36    0.00058594312092246
  37    -0.00098389750736049
  38    -0.00051783287634521
  39    -0.021286527827389
  40    -0.024472504645882
  41    0.0014606039754456
  42    -0.00085819300265895
  43    0.0002162284572344
  44    -0.019872130335113
  45    -0.037224556900227
  46    -0.0025653965633545
  47     0.011981672412972
  48    0.0020900564649944
  49      0.43305509810162
  50      0.16012954924987
  51     0.012755425972044
  52    -0.030152512689476
  53    0.0001526070293124
  54    -0.019401379929525
  55    -0.036530707429839
  56    -0.0025868357475937
  57     0.012130778125323
  58    -0.0022340572554384
 Sym= A
 Ene=               4
 Spin= Alpha
 Occup=    1.00000
   1    -0.0050891111079349
   2      0.18311957942155
   3      0.10620935274566
   4     -0.12360435857066
   5     -0.17458431239849
   6      0.30013495455379
   7    -0.060650045026264
   8    -0.081749042353206
   9      0.14123523380938
  10     0.011156093382888
  11    -0.012005267990916
  12    -0.015826870218576
  13    -0.0021297456601045
  14     0.007015219423381
  15    -0.0024460796358516
  16    -0.020092942728352
  17    -0.013030462010019
  18     0.024274751448395
  19    -0.00095180003628815
  20    -5.1295657025445e-05
  21     0.014282970130525
  22    0.0018895711354497
  23     -0.01064230077793
  24    -0.0030268087860839
  25    -0.014311745342017
  26    -0.0024879133406728
  27    0.0036173249541593
  28    0.0085255150434169
  29     -0.02128773342358
  30    -0.024473043779037
  31    0.0014606543729362
  32    0.00024177931483098
  33    -0.00085128260527735
  34    -0.00044595359473017
  35    0.0020467543362191
  36    0.0018249333170782
  37    0.00040403736716783
  38    -0.00032509720794132
  39     0.020963019696512
  40     0.037239732388841
  41    0.00058596895582598
  42    0.00094038134757447
  43    -0.00059323198274459
  44    -0.019401482200439
  45    -0.036530972515809
  46    -0.0025868449045866
  47    -0.004130601673241
  48     0.011622606815571
  49      -0.0198709618812
  50    -0.037223968060149
  51    -0.002565365273525
  52    -0.0078009455201396
  53    0.0093314039276111
  54       0.4330550853858
  55      0.16012949632138
  56     0.012755412474636
  57     0.014944125564771
  58     -0.02618915187222
 Sym= A
 Ene=               5
 Spin= Alpha
 Occup=    1.00000
   1    -0.0024455721966701
   2    -0.020096412852634
   3    -0.013032883748962
   4    -0.024278436846183
   5    -0.00079690362696226
   6    0.00051630458655804
   7    -0.014284663110148
   8     0.006958344379149
   9    0.0082698497121526
  10    -0.0045407698400714
  11    -0.0081314658686457
  12    0.00054039905378309
  13    0.0027428517865828
  14     -0.01453921902494
  15    -0.0050885778292531
  16      0.18311750556814
  17      0.10620774965779
  18      0.12360872636717
  19     -0.30126115449316
  20     -0.17263335374376
  21     0.060652056625743
  22     -0.14141401355991
  23    -0.081439119050539
  24    -0.0044363141537232
  25    -0.0068891062279357
  26     0.015358287152149
  27    -0.011132509428513
  28      -0.0120780470067
  29    -0.019401695519001
  30    -0.036530512490617
  31    0.0025869749931072
  32    -0.0093884889499185
  33    -0.0080001133175317
  34      0.43305530167839
  35      0.16012986676259
  36    -0.012755310230796
  37     0.026036576141087
  38      0.01520837399369
  39    -0.019869810286659
  40    -0.037223462975734
  41    0.0025654435682715
  42    -0.011421577719197
  43    -0.0041807425634098
  44      -0.0212860107709
  45    -0.024471834996872
  46    -0.001460709377783
  47    0.00063512455828184
  48    0.00061629264706035
  49     0.020963946078864
  50     0.037240598952651
  51    -0.00058604783345097
  52    0.0011110418771127
  53    4.3439929210199e-05
  54    -0.00045015864167781
  55    0.0020455227724066
  56    -0.0018251888721753
  57    0.00051229373900727
  58    7.9775023613016e-05
 Sym= A
 Ene=               6
 Spin= Alpha
 Occup=    1.00000
   1    -0.0024458239404952
   2    -0.020094795846018
   3    -0.013031825183263
   4    -0.024277770355882
   5    -5.0747773391449e-05
   6    -0.00094986131022592
   7    -0.014284372592351
   8     -0.01064204768018
   9    0.0018904156289148
  10    -0.0016191771188898
  11    -0.0085254996139953
  12    -0.002488006258271
  13    0.0044297255749047
  14     0.014311764965232
  15    -0.0050890278272118
  16      0.18311820942686
  17      0.10620827548874
  18      0.12360761398141
  19       0.3001357885094
  20     -0.17458235943628
  21     0.060651557600767
  22      0.14123558909718
  23    -0.081748176259755
  24    -0.0037334135152489
  25    -0.0070152346941788
  26      -0.0158269173856
  27    -0.010726535571473
  28     0.012005276666826
  29    -0.019869021178116
  30    -0.037223080648876
  31    0.0025653863103484
  32    0.0093314305717164
  33    -0.0078010461804691
  34    -0.019402475749351
  35    -0.036531125854848
  36    0.0025869697151328
  37     0.011622531271158
  38    -0.004130602542043
  39       0.4330552816409
  40       0.1601298222306
  41    -0.012755333728842
  42    -0.026189118337326
  43     0.014944179375555
  44    -0.00044743314776842
  45    0.0020465317840292
  46    -0.0018250713164761
  47    -0.00032516952405874
  48    0.00040394522897587
  49    -0.021287249834251
  50      -0.0244726434762
  51    -0.0014607263743791
  52    -0.00085128357493019
  53    0.00024183757736766
  54      0.02096421957261
  55     0.037240444764054
  56    -0.00058601095117578
  57    -0.00059317660279107
  58    0.00094036964644191
 Sym= A
 Ene=               7
 Spin= Alpha
 Occup=    1.00000
   1    -0.0050889229420218
   2        0.183118601623
   3      0.10620854333795
   4     -0.12360716981411
   5     -0.17263154547809
   6      -0.3012619861558
   7    -0.060651337656093
   8    -0.081438337454079
   9     -0.14141440385331
  10     0.011859050212963
  11     0.012078043882151
  12     0.015358318433812
  13    -0.0017242160074293
  14    0.0068891306685571
  15    -0.0024458475193558
  16    -0.020095543172183
  17    -0.013032223878169
  18     0.024276769499479
  19    0.00051833606014717
  20    -0.00079763059034706
  21     0.014283892537517
  22    0.0082707592088872
  23    0.0069580466644285
  24    -0.00010510456194834
  25     0.014539228331319
  26    0.00054030714756571
  27    0.0053039602958952
  28    0.0081314598636853
  29     0.020963262662607
  30      0.03724022460813
  31    0.00058602869342287
  32    4.3500339581378e-05
  33    0.0011110695594447
  34    -0.021287251373619
  35    -0.024472398382654
  36    0.0014607044161598
  37    0.00061626720211712
  38    0.00063505204218227
  39    -0.00044856521486384
  40    0.0020459548535444
  41    0.0018250871503676
  42    7.9691475570816e-05
  43    0.00051235414193106
  44      0.43305520440179
  45       0.1601296757233
  46     0.012755348459315
  47     0.015208432129283
  48     0.026036559039339
  49    -0.019400231839378
  50    -0.036530173094658
  51    -0.0025868775138403
  52    -0.0080002195553171
  53    -0.0093885126289836
  54    -0.019871067164339
  55    -0.037224037375006
  56    -0.0025654406206257
  57    -0.0041807384111954
  58     -0.01142151472125
 Sym= A
 Ene=               8
 Spin= Alpha
 Occup=    1.00000
   1    0.0055109208938594
   2     -0.19675275788053
   3     -0.14780321280293
   4     -0.36734368594392
   5    1.3685813910079e-06
   6    2.2285882664332e-06
   7     -0.17046453950645
   8    6.323491437999e-07
   9    9.7654391397036e-07
  10     0.016008034020379
  11    5.3465921602459e-09
  12    -1.0772165381725e-07
  13    -0.027726844267482
  14    -1.75859408308e-09
  15    0.0055118239094711
  16     -0.19675636174106
  17      -0.1478053399893
  18       0.3673419225627
  19    1.0724620698502e-06
  20     1.99140231798e-06
  21      0.17046371783913
  22    4.4011006315277e-07
  23    8.8358204280695e-07
  24     0.016008050882127
  25    -2.8186634048068e-08
  26    -5.6304340833947e-08
  27    -0.027726587065029
  28    -2.0992006501443e-08
  29     0.022275003021288
  30     0.037423609196137
  31    0.0094665540236681
  32    -1.0985959976278e-06
  33    0.0013844906894295
  34     0.022271922605222
  35     0.037422595380883
  36    0.0094666623304611
  37    -0.0011986128307005
  38    -0.00069328687310446
  39     0.022273371205176
  40     0.037423088863112
  41    0.0094666054314024
  42     0.001199686825305
  43    -0.00069125526504246
  44     0.022273656248589
  45     0.037422764804724
  46    -0.0094666126909741
  47    -0.0006931927221303
  48    -0.0011983866143443
  49     0.022276879665009
  50     0.037423909541786
  51    -0.0094665034387912
  52    0.0013842481436676
  53    -1.0622579313252e-06
  54      0.02227676570246
  55     0.037423886768833
  56    -0.0094665015253939
  57    -0.00069108926702659
  58    0.0011993983989406
 Sym= A
 Ene=               9
 Spin= Alpha
 Occup=    0.00000
   1     -0.16427360678057
   2     -0.21067686106344
   3       3.6233472326219
   4      0.32388205194399
   5    -0.00022261360842371
   6    0.00029504833046182
   7       1.7668313361917
   8    -0.00021075088571286
   9    0.00086633240030394
  10    -0.083914429354925
  11    -0.00031930716482707
  12    -0.0020592619167315
  13      0.14851928722852
  14    0.00010478999833775
  15      0.27793027210953
  16      0.53273506025536
  17      -2.0972755324795
  18     -0.34725992751324
  19    -0.00013851746005468
  20    6.5771218515861e-05
  21        3.668181570272
  22    -0.00073100407951596
  23    -0.00074042903270413
  24      0.13411006376552
  25    -0.00028187412490893
  26    0.00078279662518581
  27     -0.23115962903223
  28    -0.00036358445409969
  29     -0.16822435053388
  30     -0.49960522718828
  31     -0.29862176135808
  32    0.00017272721074851
  33      0.18407393744347
  34     -0.16887568546155
  35     -0.50046324724237
  36     -0.29870232452109
  37     -0.15983646482764
  38     -0.09169957044117
  39     -0.16780231171935
  40     -0.49984413583555
  41     -0.29895153822231
  42      0.15920937242463
  43    -0.091945485490591
  44     -0.15230818021669
  45      0.12404646141458
  46    0.0091285250076797
  47    -0.00071234387344088
  48    0.0033885796649172
  49     -0.15216658779158
  50      0.12389868798133
  51    0.0093209188900048
  52    -0.0026137827295723
  53    -0.0013377799224619
  54     -0.15419336470423
  55      0.12356193808285
  56    0.0085359750338014
  57    0.0023231076241621
  58    -0.00075256128787101
 Sym= A
 Ene=              10
 Spin= Alpha
 Occup=    0.00000
   1     0.059801095479264
   2     0.068786429185091
   3      -1.1764779447576
   4     -0.12838245113909
   5     -0.02214346954853
   6    -0.016443140529302
   7     -0.44019833179356
   8      0.56464901613088
   9      0.54544013062207
  10     0.044507364115537
  11     0.063657482026959
  12      0.01311774641058
  13     -0.01479162178443
  14     0.096811153985053
  15     -0.40812708502805
  16     -0.72036269771875
  17       3.4041450764508
  18      0.16517563238451
  19    -0.071000214421054
  20    -0.033510608429565
  21     -0.10072400271501
  22      -2.1845395202649
  23      -1.5327986284314
  24     -0.14253755311505
  25     -0.16283387385002
  26       0.2968863110017
  27     -0.15510269541656
  28     -0.25250864778818
  29    0.0084053326960014
  30      0.39753579162263
  31     -0.04592400058804
  32      0.24155762594031
  33    0.0018629087266671
  34      -1.6617783361941
  35      -1.8484937932093
  36      0.25548011824874
  37     -0.41689718360957
  38     -0.21036059277872
  39     -0.11223186200606
  40      0.17633318848638
  41    -0.027790130117116
  42      0.16341441805272
  43      0.21383261499803
  44     0.086671156960634
  45      0.29625258003382
  46    -0.057970039797042
  47    -0.038101072712616
  48    -0.0061019025175752
  49      0.07442969236226
  50      -0.0482032223863
  51     0.078750236696239
  52    -0.043470200792965
  53     -0.03927087647085
  54     0.041900420388671
  55     -0.10157507865283
  56    -0.013465001397557
  57    -0.052902840206713
  58    -0.033103946201018
 Sym= A
 Ene=              11
 Spin= Alpha
 Occup=    0.00000
   1     0.059692332934527
   2      0.06858376652038
   3      -1.1758176880064
   4     -0.12845062130369
   5     0.025290498282602
   6    -0.011036865372102
   7     -0.44013820644415
   8      -0.7545262650006
   9      0.21609004002701
  10    -0.0056729750466277
  11     0.051943212862542
  12     0.021644652855155
  13     -0.04435420327579
  14     -0.10347504486587
  15     -0.40801946319744
  16     -0.72013751264547
  17       3.4035359819315
  18      0.16504210231727
  19     0.063951056317683
  20    -0.044971125738006
  21     -0.10019797836421
  22       2.4188600638671
  23      -1.1256203531695
  24     -0.10567510202871
  25     -0.13746945482911
  26     -0.31816978912047
  27     -0.13260660488715
  28      0.26711150304075
  29     -0.11146893214607
  30      0.17631691118419
  31    -0.028225235674427
  32     -0.26791026613294
  33     0.034296100438298
  34    0.0066269947941228
  35      0.39734753030408
  36    -0.045467547134427
  37     -0.12330804556634
  38      0.20813578194907
  39      -1.6602360408318
  40      -1.8484141952758
  41      0.25460710160978
  42      0.38975083366382
  43     -0.25627690767593
  44     0.041392870975719
  45     -0.10161228633271
  46    -0.013751074780244
  47     0.055229663608545
  48    -0.029506719078598
  49     0.086503858825921
  50      0.29623005895096
  51    -0.058015157429723
  52     0.024351716125244
  53    -0.030274335494307
  54     0.074763495641521
  55    -0.048188940956224
  56     0.078932128605165
  57       0.0556983204012
  58     -0.01819240139128
 Sym= A
 Ene=              12
 Spin= Alpha
 Occup=    0.00000
   1     0.059737008160526
   2      0.06869522077735
   3      -1.1758284878263
   4      -0.1284432020551
   5    -0.0030051663128586
   6     0.027292843664841
   7      -0.4401606776081
   8      0.19052207307947
   9     -0.76168739086051
  10      0.01284599255661
  11     -0.11537961427434
  12    -0.033115343603542
  13    -0.033611250245862
  14    0.0066526492087509
  15     -0.40801306878943
  16     -0.72011815417001
  17       3.4035710598886
  18      0.16501664926749
  19    0.0062390493151782
  20     0.077787089299658
  21    -0.099989472247312
  22     -0.23563218883872
  23       2.6575758632903
  24      0.33735831615884
  25      0.30017875319594
  26     0.027356749279113
  27      0.12325713051476
  28    -0.014821236090968
  29      -1.6600273158365
  30      -1.8484655384336
  31      0.25439950197802
  32     0.025844194247313
  33       0.4655963818658
  34     -0.11356171023271
  35      0.17612694890134
  36    -0.027476786846206
  37      0.10327257850417
  38     -0.24928567377767
  39    0.0084755230653343
  40      0.39748152168194
  41    -0.046225544468243
  42     -0.11964415102712
  43     -0.21112765973314
  44     0.074427560176353
  45    -0.048167265258153
  46     0.078792799479989
  47    -0.011997739701209
  48     0.057091972557217
  49     0.041069147973649
  50     -0.10170117321835
  51    -0.013793851538034
  52    -0.0019392239761178
  53     0.062299019462013
  54     0.087162368357891
  55      0.29631686644851
  56     -0.05777939754748
  57     0.014114839491347
  58     0.035971561041587
 Sym= A
 Ene=              13
 Spin= Alpha
 Occup=    0.00000
   1     -0.27793358888269
   2     -0.53273991840823
   3       2.0972845737479
   4     -0.34726049298445
   5    0.0001301705625077
   6    -5.4807058104526e-05
   7       3.6681611046993
   8    0.00031929231017418
   9    -0.00066856874300028
  10     -0.13447333912337
  11    0.0004145496904123
  12    -0.00012422522888216
  13      0.23095366915432
  14    -0.00013164998873235
  15      0.16426412700527
  16      0.21065489267774
  17      -3.6233130344187
  18      0.32389651030069
  19    0.00033949997323816
  20    0.00012053059069882
  21        1.766799106654
  22    0.00056348814726565
  23    0.0005641724614203
  24     0.086175394968185
  25    0.00022303972500255
  26    -0.0023793102239101
  27      -0.1472160972925
  28    0.00027697488564005
  29      0.15230953441947
  30     -0.12402770732526
  31    0.0091530510056726
  32    0.0023084697405149
  33    0.0025570910524387
  34       0.1541803950511
  35     -0.12358854360799
  36     0.008538153932661
  37    -0.0023937628227452
  38    0.00052646313724523
  39      0.15217606113307
  40     -0.12388430484345
  41    0.0093014443606517
  42    0.0016207900552222
  43    -0.0024617135582903
  44       0.1683167838259
  45      0.49974318492889
  46     -0.29859581310095
  47     0.091898714102317
  48      0.15946534254109
  49      0.16778613303625
  50       0.4998233342048
  51     -0.29896192115976
  52      -0.1838863594223
  53    -6.2861508083848e-05
  54      0.16877963507069
  55      0.50032038918266
  56     -0.29871620547285
  57     0.092548151946488
  58     -0.15932193623277
 Sym= A
 Ene=              14
 Spin= Alpha
 Occup=    0.00000
   1     -0.40803265211377
   2     -0.72016091883051
   3       3.4036091388631
   4     -0.16504576037237
   5     0.077878765998241
   6    0.0069200139777407
   7      0.10015938360113
   8       2.6576054488957
   9     -0.23413185805921
  10     -0.27597316149678
  11     0.014483937062389
  12     0.022392379155847
  13     -0.23091672468778
  14       -0.300052310748
  15     0.059688401946499
  16     0.068572951294608
  17      -1.1758027304637
  18      0.12845388601889
  19     0.027410150778546
  20    -0.0030917092213481
  21      0.44013869309694
  22     -0.76143551153313
  23      0.18992289333616
  24     0.022300387196328
  25    -0.0067475838881722
  26    -0.034268460442793
  27    -0.028202949607552
  28      0.11559561200114
  29     0.041422624964917
  30     -0.10154233154019
  31     0.013773568666348
  32     0.062567579424452
  33    -0.002077621291215
  34     0.074758087999313
  35    -0.048209169028429
  36    -0.078937304392803
  37     0.057318472420801
  38    -0.012069242974815
  39     0.086485268249999
  40      0.29617389582252
  41     0.058016310606947
  42     0.036238110612194
  43     0.014053246656917
  44     -0.11136621098559
  45      0.17651374013041
  46     0.028319435376338
  47     -0.24919706182542
  48      0.10424364108976
  49      -1.6602457246997
  50      -1.8484435127276
  51     -0.25459886994017
  52      0.46566176139485
  53     0.026981799046563
  54    0.0064952701374164
  55      0.39713108913608
  56     0.045458793620622
  57     -0.21088964814813
  58     -0.11859842938011
 Sym= A
 Ene=              15
 Spin= Alpha
 Occup=    0.00000
   1     -0.40808211232647
   2        -0.72027944411
   3       3.4037900494233
   4     -0.16514503780308
   5     -0.04473237735202
   6     0.064488534875526
   7      0.10041390544278
   8      -1.1258789260384
   9       2.4195756513935
  10      0.16721412369714
  11     -0.26723591181725
  12     -0.32248882553187
  13     0.023700250622519
  14      0.13735808263092
  15      0.05977587569756
  16     0.068747818418174
  17      -1.1760689030784
  18      0.12835622914196
  19    -0.010956910412447
  20     0.025303487063857
  21        0.440027482084
  22      0.21637849688466
  23     -0.75462178692878
  24     0.040867177807059
  25      0.10352806441325
  26     0.020427212082778
  27    -0.016878341794487
  28    -0.052016990101017
  29     0.086636285624468
  30      0.29623069315078
  31     0.057957166678803