[Molden Format]
made by pyscf v[2.0.1]
[Atoms] (AU)
C   1   6     0.00000000000000     0.00000000000000     0.00000000000000
C   2   6     2.88195139270757     0.00000000000000     0.00000000000000
H   3   1     3.63065534584939     0.00000000000000     1.92469232395612
H   4   1     3.63065534584939    -1.66683244701491    -0.96234616197806
H   5   1     3.63065534584939     1.66683244701491    -0.96234616197806
H   6   1    -0.74870395314182     1.66683244701491    -0.96234616197806
H   7   1    -0.74870395314182     0.00000000000000     1.92469232395612
H   8   1    -0.74870395314182    -1.66683244701491    -0.96234616197806
[GTO]
1 0
 s    8 1.00
                  6665  0.00069158396281299
                  1000  0.0053257961529341
                   228   0.027060721042034
                 64.71    0.10165684614077
                 21.06     0.2745748236174
                 7.495    0.44829431892377
                 2.797    0.28490261071525
                0.5215   0.015194859206082
 s    8 1.00
                  6665  -0.00029326965268655
                  1000  -0.0023180354739745
                   228  -0.011499786038565
                 64.71  -0.046826727009787
                 21.06   -0.12846616875047
                 7.495   -0.30126627246289
                 2.797   -0.25563070233011
                0.5215      1.093793361012
 s    1 1.00
                0.1596                   1
 p    3 1.00
                 9.439   0.056979251590039
                 2.002    0.31320721150073
                0.5456    0.76037674173753
 p    1 1.00
                0.1517                   1
 d    1 1.00
                  0.55                   1

2 0
 s    8 1.00
                  6665  0.00069158396281299
                  1000  0.0053257961529341
                   228   0.027060721042034
                 64.71    0.10165684614077
                 21.06     0.2745748236174
                 7.495    0.44829431892377
                 2.797    0.28490261071525
                0.5215   0.015194859206082
 s    8 1.00
                  6665  -0.00029326965268655
                  1000  -0.0023180354739745
                   228  -0.011499786038565
                 64.71  -0.046826727009787
                 21.06   -0.12846616875047
                 7.495   -0.30126627246289
                 2.797   -0.25563070233011
                0.5215      1.093793361012
 s    1 1.00
                0.1596                   1
 p    3 1.00
                 9.439   0.056979251590039
                 2.002    0.31320721150073
                0.5456    0.76037674173753
 p    1 1.00
                0.1517                   1
 d    1 1.00
                  0.55                   1

3 0
 s    3 1.00
                 13.01   0.033498726389998
                 1.962    0.23480080117413
                0.4446     0.8136829578829
 s    1 1.00
                 0.122                   1
 p    1 1.00
                 0.727                   1

4 0
 s    3 1.00
                 13.01   0.033498726389998
                 1.962    0.23480080117413
                0.4446     0.8136829578829
 s    1 1.00
                 0.122                   1
 p    1 1.00
                 0.727                   1

5 0
 s    3 1.00
                 13.01   0.033498726389998
                 1.962    0.23480080117413
                0.4446     0.8136829578829
 s    1 1.00
                 0.122                   1
 p    1 1.00
                 0.727                   1

6 0
 s    3 1.00
                 13.01   0.033498726389998
                 1.962    0.23480080117413
                0.4446     0.8136829578829
 s    1 1.00
                 0.122                   1
 p    1 1.00
                 0.727                   1

7 0
 s    3 1.00
                 13.01   0.033498726389998
                 1.962    0.23480080117413
                0.4446     0.8136829578829
 s    1 1.00
                 0.122                   1
 p    1 1.00
                 0.727                   1

8 0
 s    3 1.00
                 13.01   0.033498726389998
                 1.962    0.23480080117413
                0.4446     0.8136829578829
 s    1 1.00
                 0.122                   1
 p    1 1.00
                 0.727                   1

[5d]
[7f]
[9g]

[MO]
 Sym= A
 Ene=               0
 Spin= Alpha
 Occup=    1.00000
   1       1.0026337736389
   2    -0.00039250054057384
   3    -0.012771713217315
   4    0.00097385409250215
   5    2.7565164320711e-07
   6    1.3949931053757e-07
   7    -0.00016829419046999
   8    1.3498081583504e-07
   9    6.8403437471913e-08
  10    8.9126325979717e-05
  11    -8.0516499144066e-09
  12    -1.4010640905907e-08
  13    -0.00015435714179308
  14    -1.5696413990212e-08
  15    -2.8592386497139e-05
  16    -0.00046997361485427
  17     0.001996036038129
  18     0.001147188961161
  19    -1.0215358188191e-07
  20    -5.3982958612163e-08
  21    -0.00057956636282349
  22    -5.9754458763532e-08
  23    -3.132473088736e-08
  24    0.00026023918691562
  25    -8.7271700146578e-09
  26    5.313747811041e-09
  27    -0.00045075310364141
  28    -1.7066928730562e-08
  29    1.2675357576369e-05
  30    0.00016363189760409
  31    -2.4437122519047e-05
  32    -3.3562959970497e-09
  33    -1.0461543231773e-05
  34    1.2853326533563e-05
  35    0.00016373774186043
  36    -2.4441960561223e-05
  37    9.0651968950722e-06
  38    5.2339618288341e-06
  39    1.2666822109616e-05
  40    0.00016362631063322
  41    -2.4436910962796e-05
  42    -9.0613546241534e-06
  43    5.2278679758905e-06
  44    -0.0029096727086501
  45    0.00074387094470205
  46    -0.00021522109584243
  47    0.0006851687591581
  48    -0.00039557298606104
  49    -0.0029096988153574
  50    0.0007438591401477
  51    -0.00021522195481254
  52    8.6578123836803e-09
  53    0.00079116129305352
  54    -0.0029100994533375
  55    0.00074367450447181
  56    -0.00021523499711405
  57    -0.00068518182403129
  58    -0.00039559052624978
 Sym= A
 Ene=               1
 Spin= Alpha
 Occup=    1.00000
   1    -2.8593199809898e-05
   2    -0.00046974464005777
   3    0.0019961904071627
   4    -0.0011470243459672
   5    -1.9890147187099e-09
   6    7.9730303563953e-08
   7    0.00057964195799663
   8    4.9783658620478e-09
   9    4.4869006291549e-08
  10    0.00026023779733331
  11    -1.1275693021163e-08
  12    2.6751605872517e-11
  13    -0.00045073683651988
  14    -6.7675372618251e-09
  15       1.0026337700019
  16    -0.00039242892434963
  17    -0.012771652078358
  18    -0.00097409558294975
  19    -1.4470431479414e-07
  20    -1.7191987200703e-07
  21    0.00016818348344504
  22    -6.8582562302326e-08
  23    -8.4841126902635e-08
  24    8.9100487202747e-05
  25    -1.0547459075746e-08
  26    7.3265074955184e-09
  27    -0.00015434406365141
  28    -5.6087613362926e-09
  29    -0.0029100207392476
  30    0.0007437024573341
  31    0.00021522632305915
  32    -4.5103818524847e-09
  33    0.0007911768177719
  34    -0.0029096798939788
  35    0.0007438578571713
  36    0.00021521515986065
  37    -0.00068516399364424
  38    -0.00039558242180597
  39    -0.0029098972829676
  40    0.0007437637704715
  41    0.00021522248125378
  42    0.00068517108584142
  43    -0.00039559172462828
  44    1.2757905587319e-05
  45    0.00016364524472033
  46    2.444500021016e-05
  47    -9.0670632158998e-06
  48    5.237480216452e-06
  49    1.2872372704725e-05
  50    0.00016370337704373
  51    2.4448510809063e-05
  52    2.792778413953e-11
  53    -1.0475923372391e-05
  54    1.274364073649e-05
  55    0.00016362303348486
  56    2.4445162943374e-05
  57    9.0677687672386e-06
  58    5.2378553184694e-06
 Sym= A
 Ene=               2
 Spin= Alpha
 Occup=    1.00000
   1    -0.0051637763254461
   2      0.18286016883403
   3      0.10682026737312
   4     -0.12364262273391
   5     -0.30096033859385
   6     -0.17375805749062
   7    -0.060254863726935
   8     -0.14282603780411
   9    -0.082459963241699
  10    -0.0038537687780025
  11    0.0068590281807182
  12     0.015240211209638
  13    -0.010922807675863
  14      0.01188026240029
  15    -0.0024114981722602
  16    -0.020201734149296
  17    -0.013582124807351
  18     0.024425895920543
  19    0.00040757204533614
  20    0.00023559965111356
  21     0.014949765485917
  22     0.012510519273352
  23    0.0072230278783405
  24    -0.0022532118946845
  25    0.0082297356379506
  26    -0.00017447933532841
  27    0.0041041765056102
  28     0.014254421477619
  29     0.012037911511678
  30     0.021136402752384
  31    0.0012339604271576
  32    0.00019977067532328
  33    0.00050448613539165
  34    -0.024465239478467
  35    -0.028024045766806
  36    0.0011254149275219
  37    0.00070815372501646
  38    0.00040886080070249
  39     0.012037688971427
  40     0.021136447655227
  41    0.0012339735854298
  42    0.00053680769534629
  43    -7.9242704126434e-05
  44    -0.019656815162395
  45    -0.036550166921925
  46    -0.0025736848221933
  47    -0.011472668371588
  48    -0.0042115127294985
  49    -0.019654923761139
  50    -0.036549374000996
  51    -0.0025736200921077
  52    -0.0093836508699202
  53    -0.0078299622161382
  54      0.43301719522201
  55       0.1598724381669
  56     0.012651615853456
  57     0.026204131327393
  58     0.015129008085052
 Sym= A
 Ene=               3
 Spin= Alpha
 Occup=    1.00000
   1    -0.0024112683156872
   2     -0.02020244257063
   3    -0.013582827013235
   4    -0.024429815383884
   5    2.4816695080034e-07
   6    -0.0004711778912401
   7    -0.014951609347571
   8    7.365011196801e-08
   9    -0.014446120490568
  10    -0.0025148118505033
  11     0.016459557007721
  12    -1.2015745489463e-08
  13    0.0039527841465226
  14    4.1207797736551e-08
  15    -0.0051639440665616
  16       0.1828587577478
  17      0.10681915454803
  18      0.12364619974943
  19    1.0777517441226e-06
  20      0.34751794495567
  21     0.060256550520509
  22    5.012498790152e-07
  23      0.16492079395237
  24     0.019006568370625
  25     0.013718127468591
  26    -5.4448243233299e-08
  27    0.0022753052147952
  28    3.0733957148705e-08
  29      0.43301737122116
  30      0.15987274493974
  31    -0.012651521462611
  32    3.3448095303131e-08
  33    -0.030257951182533
  34    -0.019656033233769
  35    -0.036549636694532
  36    0.0025737572503047
  37    0.0020890931096281
  38     0.012041391292771
  39    -0.019654441957258
  40    -0.036548973851643
  41    0.0025737026207136
  42    -0.0020891469127825
  43     0.012041460978571
  44     0.012039020837137
  45     0.021136974220462
  46    -0.0012340248711029
  47    0.00033693522687314
  48    -0.00042521745359794
  49    -0.024464636148824
  50    -0.028023668177785
  51    -0.0011254974200896
  52    7.0675139015548e-09
  53    -0.00081776497584317
  54     0.012038776133152
  55     0.021136987401769
  56    -0.0012340378883706
  57    -0.00033695190531762
  58    -0.00042523524376421
 Sym= A
 Ene=               4
 Spin= Alpha
 Occup=    1.00000
   1    -0.0024112341918309
   2    -0.020203709470612
   3    -0.013583609395081
   4    -0.024429653201674
   5    -0.00040798321812042
   6    0.00023320067326756
   7    -0.014951538531883
   8    -0.012510627052876
   9    0.0072219333813073
  10    -0.0022531784555169
  11    -0.0082296917797749
  12    0.00017449906554549
  13    0.0041038767241234
  14      0.01425433673378
  15    -0.0051642081823437
  16      0.18285964749459
  17      0.10681965489075
  18      0.12364709189129
  19      0.30095820481938
  20     -0.17375912886812
  21     0.060256960677819
  22      0.14282504212974
  23    -0.082460373442692
  24    -0.0038536326879626
  25    -0.0068589569091337
  26    -0.015240103369933
  27     -0.01092314944281
  28     0.011880197759774
  29    -0.019654484939591
  30    -0.036548974311406
  31    0.0025737246832682
  32    0.0093835845982677
  33    -0.0078300120234128
  34    -0.019653648666892
  35    -0.036548836733595
  36    0.0025736875208365
  37       0.0114728463886
  38    -0.0042114036018839
  39      0.43301720168797
  40      0.15987244301072
  41    -0.012651505031444
  42    -0.026204203159741
  43      0.01512897938301
  44    -0.024464155495772
  45    -0.028023199461892
  46    -0.0011254899726254
  47    -0.00070820984730417
  48    0.00040881243736488
  49     0.012036163558618
  50     0.021136005120219
  51    -0.0012341301158504
  52    -0.00019978216868728
  53    0.00050460060407706
  54     0.012039136876348
  55     0.021137215565748
  56    -0.0012340269135951
  57    -0.00053672247646182
  58    -7.9260997142656e-05
 Sym= A
 Ene=               5
 Spin= Alpha
 Occup=    1.00000
   1    -0.0051646503791591
   2      0.18286013109867
   3      0.10682002120502
   4      -0.1236462411674
   5    3.2000252613054e-07
   6      0.34751697888761
   7    -0.060256581504946
   8    5.3404293625456e-08
   9      0.16492035496711
  10     0.019006522672538
  11    -0.013718111851346
  12    -1.4974734701429e-08
  13    0.0022752870121231
  14    1.0118427471965e-07
  15    -0.0024117277033526
  16    -0.020202437437888
  17    -0.013582774993996
  18     0.024429187794154
  19    2.4053331961398e-06
  20    -0.0004716525486833
  21     0.014951335235548
  22    1.1282635436542e-06
  23    -0.014446306183946
  24    -0.0025148769671713
  25    -0.016459530009741
  26    -1.2163747381503e-07
  27    0.0039528498482221
  28    7.9656006499203e-08
  29    -0.024465172590875
  30    -0.028023827160218
  31     0.001125505060929
  32    7.4795027686125e-08
  33    -0.00081772645486431
  34     0.012037090834613
  35     0.021136195434224
  36    0.0012340787769703
  37    -0.00033700053807316
  38    -0.0004253166228919
  39     0.012040670143574
  40     0.021137712764237
  41    0.0012339569546755
  42    0.00033688144273625
  43    -0.00042516149730844
  44    -0.019654042310903
  45    -0.036549144625507
  46    -0.0025736757153062
  47    -0.0020892406895236
  48     0.012041470881222
  49      0.43301726006074
  50      0.15987251751618
  51     0.012651524570474
  52    8.4820522523192e-09
  53    -0.030257996535815
  54    -0.019654236735018
  55    -0.036548962630709
  56    -0.0025736929365313
  57    0.0020892149147251
  58     0.012041446205905
 Sym= A
 Ene=               6
 Spin= Alpha
 Occup=    1.00000
   1    -0.0024116190358942
   2     -0.02020198373314
   3    -0.013582470321279
   4    -0.024428849547482
   5    0.00040764390526743
   6    0.00023646718688654
   7    -0.014951177404452
   8     0.012510521060317
   9    0.0072234008415838
  10    -0.0022530769564242
  11    -0.0082297250994573
  12    -0.00017448257059489
  13    0.0041040296795337
  14    -0.014254386958223
  15    -0.0051647193804318
  16       0.1828601442582
  17      0.10682006737642
  18      0.12364568806427
  19     -0.30095954908586
  20     -0.17375711205207
  21     0.060256325250118
  22     -0.14282566611388
  23    -0.082459550124369
  24    -0.0038536234804967
  25    -0.0068590319634675
  26     0.015240171267337
  27    -0.010922964475366
  28    -0.011880234685106
  29    -0.019653159774018
  30    -0.036548666914481
  31      0.00257363652674
  32    -0.0093836262991568
  33    -0.0078300992814897
  34        0.433017228019
  35      0.15987248140429
  36    -0.012651537688991
  37     0.026204162252974
  38     0.015129040691846
  39    -0.019655603564462
  40     -0.03654962025814
  41    0.0025737230148865
  42     -0.01147273824867
  43    -0.0042114292621718
  44     0.012038206642516
  45      0.02113669392006
  46    -0.0012340329448203
  47    0.00053676675973602
  48    -7.9191599177696e-05
  49     0.012039454501344
  50     0.021137046866259
  51    -0.0012339834138321
  52    0.00019977242506295
  53    0.00050436991042675
  54    -0.024464735730196
  55      -0.0280237181208
  56    -0.0011254782611518
  57    0.00070818782456068
  58    0.0004089059384213
 Sym= A
 Ene=               7
 Spin= Alpha
 Occup=    1.00000
   1    -0.0051646842316255
   2      0.18285975618043
   3      0.10681970843999
   4     -0.12364740001928
   5      0.30095741579775
   6     -0.17376011825804
   7    -0.060257106505474
   8      0.14282468556607
   9    -0.082460921357887
  10    -0.0038536650681239
  11    0.0068590865737943
  12    -0.015240063638309
  13    -0.010923195519375
  14    -0.011880187283006
  15    -0.0024114579519209
  16    -0.020203839736273
  17    -0.013583701207964
  18     0.024429844040916
  19    -0.00040841904628736
  20    0.00023511724145393
  21      0.01495163122858
  22     -0.01251080156712
  23    0.0072228833081584
  24    -0.0022530893413309
  25    0.0082298141203683
  26    0.00017452073165262
  27    0.0041039174873302
  28    -0.014254316581544
  29     0.012037896225319
  30      0.02113684021031
  31    0.0012340803719698
  32    -0.000199795266599
  33    0.00050452251695005
  34     0.012038551817234
  35     0.021136906628052
  36    0.0012340495769401
  37    -0.00053677245947779
  38    -7.9221922687426e-05
  39     -0.02446530192102
  40    -0.028023664562238
  41    0.0011255350230234
  42    -0.00070813521261046
  43    0.00040882215500159
  44      0.43301728559098
  45      0.15987254590529
  46     0.012651497614256
  47    -0.026204227351729
  48     0.015128947265056
  49    -0.019655320265556
  50    -0.036549478109881
  51    -0.0025737546834152
  52    0.0093835602688955
  53    -0.0078299908981023
  54    -0.019652430098152
  55    -0.036548289860906
  56    -0.0025736548346375
  57     0.011472911038013
  58    -0.004211384268594
 Sym= A
 Ene=               8
 Spin= Alpha
 Occup=    1.00000
   1    0.0054867746724637
   2     -0.19708859316028
   3     -0.14774813877209
   4     -0.36704532737338
   5    -3.0326484420564e-06
   6    -6.5981489590349e-07
   7     -0.17037516870477
   8    -1.391526463751e-06
   9    -2.9957449643715e-07
  10     0.016079686966672
  11    1.0379666344625e-08
  12    1.5297367946722e-07
  13    -0.027850901281753
  14    6.460629071926e-08
  15    0.0054874173959577
  16     -0.19709000334743
  17     -0.14774898413391
  18      0.36704463700848
  19    -1.160685185071e-06
  20    -3.3024758438471e-07
  21      0.17037485453253
  22    -4.266449430713e-07
  23    -1.2970288643689e-07
  24     0.016079659048497
  25    1.8200476127294e-08
  26    5.7224486289123e-08
  27    -0.027850819211925
  28    9.7730727016765e-08
  29     0.022114425131662
  30     0.037312837611557
  31    0.0094952458543224
  32    -3.430310214179e-08
  33    0.0014247901279865
  34     0.022115479094439
  35      0.03731306366543
  36    0.0094952011301232
  37    -0.0012338446984302
  38    -0.00071235065028154
  39      0.02211409514479
  40     0.037312799086112
  41    0.0094952611504376
  42    0.0012339142644648
  43    -0.00071243042406073
  44     0.022113644425554
  45     0.037312281415972
  46    -0.0094952774879105
  47    0.0012338529707673
  48    -0.00071243988475918
  49     0.022115030406897
  50     0.037312850085772
  51    -0.0094952295590301
  52    -9.383104905021e-08
  53    0.0014246962148569
  54     0.022118066924508
  55     0.037314071448132
  56    -0.0094951235691266
  57    -0.0012336996325908
  58    -0.00071224300815884
 Sym= A
 Ene=               9
 Spin= Alpha
 Occup=    0.00000
   1     -0.16396885202221
   2     -0.21023217753335
   3       3.6235915216473
   4      0.32280186831341
   5    -1.1879639077754e-06
   6    0.00033315454014061
   7       1.7661163114549
   8    -2.0426303650735e-07
   9    0.00081072102455091
  10    -0.083342922350745
  11    -0.00017528654510906
  12    1.8290239953557e-05
  13      0.14856257672023
  14    -1.3797171899413e-06
  15       0.2746903449304
  16      0.52592932292619
  17      -2.0786527098114
  18     -0.34874249241071
  19    1.5863755040771e-06
  20    -0.00010754035838578
  21       3.6703578747935
  22    1.5883933185104e-06
  23    -0.00059843433791953
  24      0.13307455885275
  25     0.000138963691447
  26    1.4464523516606e-05
  27     -0.23335771837262
  28    3.0666721135622e-06
  29     -0.16659015715217
  30      -0.5061521998767
  31     -0.29775203786357
  32    -4.7421782839842e-06
  33      0.18344684712528
  34     -0.16750506230751
  35     -0.50638519029719
  36     -0.29735555849499
  37     -0.15897303844865
  38     -0.09212002151039
  39     -0.16750108504486
  40     -0.50638885785171
  41     -0.29735982978415
  42      0.15897007892123
  43    -0.092123489461857
  44     -0.15221219304654
  45      0.12391843017396
  46    0.0094593255493819
  47    -0.00049023959857819
  48    0.00073484846804982
  49     -0.15380427203855
  50      0.12356754596341
  51    0.0089134430041834
  52    -5.3161215454146e-06
  53    -0.00015300094007827
  54     -0.15222233170456
  55      0.12392027503594
  56    0.0094533061720125
  57    0.00048420803656485
  58    0.00073755676632066
 Sym= A
 Ene=              10
 Spin= Alpha
 Occup=    0.00000
   1     0.062651872029484
   2     0.073256565515484
   3      -1.2086077922652
   4     -0.12836518988084
   5      0.02460100450785
   6    -0.014330017197917
   7     -0.43408985608352
   8     -0.80625299906539
   9      0.46482700549929
  10    0.0029619146061095
  11     0.058124503561287
  12     -0.02149649604136
  13    -0.031851661953571
  14     -0.10063898527257
  15     -0.40678522249726
  16     -0.71638708328545
  17       3.4077151934421
  18      0.16841549323689
  19     0.071041548793566
  20    -0.040571882105706
  21     -0.10004055210603
  22       2.3644700873575
  23      -1.3639503774842
  24     -0.11862622962435
  25      -0.1462229418094
  26     -0.30725424902984
  27     -0.14239024952024
  28      0.25366171209988
  29    -0.051708483796287
  30       0.3093971909603
  31    -0.036888869006277
  32     -0.25888573586279
  33     0.019103568381214
  34    -0.049207462220956
  35      0.30990999645488
  36    -0.037896974005981
  37     -0.14553642424759
  38      0.21576907743887
  39      -1.6743487848243
  40      -1.8963311819245
  41      0.25650764414255
  42      0.40696734351346
  43     -0.23418805102997
  44      0.11031192091363
  45      0.42191626719239
  46    -0.045775574801528
  47     0.019705287415694
  48    -0.011564722938174
  49     0.055298802544993
  50     -0.12418290983965
  51     0.032474040011869
  52      0.05900877090933
  53    -0.023716321344689
  54     0.054544260202471
  55     -0.12448872958339
  56     0.032297229388036
  57     0.049879641249886
  58    -0.039533723626799
 Sym= A
 Ene=              11
 Spin= Alpha
 Occup=    0.00000
   1      0.40678233994344
   2      0.71638137880624
   3      -3.4076961503385
   4      0.16841781616886
   5     0.071046943502313
   6     0.040573326365637
   7     -0.10005244682435
   8       2.3644753284562
   9       1.3639433866083
  10      0.11862724973035
  11     -0.14622091728612
  12     -0.30724891648134
  13      0.14239055720023
  14     -0.25366308343195
  15    -0.062652049688755
  16    -0.073256736687478
  17        1.208613392999
  18     -0.12836552992745
  19     0.024602335645661
  20     0.014330298879734
  21     -0.43408926756758
  22     -0.80624591744949
  23     -0.46482579002495
  24    -0.0029616777772885
  25     0.058124444080409
  26    -0.021499923266551
  27     0.031851140668482
  28       0.1006395790535
  29    -0.055299792356854
  30       0.1241824683685
  31      0.03247361672642
  32      0.05900851073776
  33     0.023716725394552
  34     -0.11030866628785
  35     -0.42191201639428
  36    -0.045777176784991
  37     0.019706285812254
  38     0.011565719879192
  39     -0.05454901696238
  40      0.12448466070959
  41     0.032298357121785
  42     0.049880999423083
  43     0.039532642207438
  44     0.049199340854521
  45     -0.30992049068595
  46    -0.037896576389678
  47     -0.14553324380656
  48       -0.215769464622
  49     0.051706209255734
  50     -0.30939812266456
  51    -0.036888093344096
  52     -0.25888870356314
  53    -0.019102526598907
  54       1.6743486542858
  55       1.8963283048415
  56      0.25650944422415
  57      0.40696649574562
  58      0.23419116980069
 Sym= A
 Ene=              12
 Spin= Alpha
 Occup=    0.00000
   1       -0.406701544964
   2     -0.71625124739262
   3       3.4072725405026
   4     -0.16828584534503
   5    -9.5029374633206e-06
   6     0.082307741320803
   7     0.099593930427265
   8    0.00016299223803808
   9        2.730977745725
  10      0.34191720164405
  11     -0.29304235668842
  12    2.1216344523458e-05
  13      0.12234617801112
  14    -1.9750820600684e-05
  15     0.062706963939581
  16     0.073390498899828
  17      -1.2079484786812
  18      0.12816709173491
  19    2.3916984453511e-06
  20     0.028217610571068
  21       0.4337918036754
  22    -5.4719982229821e-05
  23     -0.93146477667298
  24     0.035324404457703
  25      0.11597847900295
  26    3.7155943641656e-06
  27    -0.013233421372146
  28    9.1077643247233e-06
  29      0.11102095216658
  30      0.42214927079948
  31     0.045633000133626
  32    2.2882271218715e-06
  33     0.022550847081546
  34     0.054470596632818
  35     -0.12446912096112
  36    -0.032269892054821
  37    -0.0091692539042852
  38      0.06270124784091
  39     0.054477433123527
  40     -0.12443505947711
  41    -0.032266508362348
  42     0.009172712688311
  43     0.062701076923812
  44    -0.049610647909348
  45      0.30973421188095
  46     0.037631447042328
  47     -0.11340019201024
  48     -0.23297571990706
  49      -1.6764227289353
  50      -1.8966788628063
  51     -0.25744378063914
  52    -3.0440867129119e-05
  53      0.47030913363871
  54    -0.049531868362774
  55      0.30988470064631
  56     0.037635486712135
  57      0.11339778263066
  58     -0.23294293524586
 Sym= A
 Ene=              13
 Spin= Alpha
 Occup=    0.00000
   1     -0.27469022464673
   2     -0.52592920637167
   3        2.078659644095
   4     -0.34874055471196
   5    1.9137487701092e-06
   6    0.0001124964042097
   7       3.6703680426956
   8    1.3047092279003e-05
   9    0.00060674826185951
  10     -0.13307139927234
  11    0.00013707739503113
  12    7.7233206324523e-06
  13      0.23336078223006
  14    -2.8068489326496e-06
  15      0.16396862946193
  16      0.21023202087433
  17      -3.6235870350502
  18      0.32279909382256
  19    -3.2575872557106e-06
  20    -0.00033448025511904
  21       1.7661398618756
  22    -4.9992804469778e-06
  23    -0.00081401740819213
  24     0.083342408582392
  25    -0.00017540778838591
  26    2.3105105814504e-05
  27     -0.14856352635614
  28    6.0303658908668e-06
  29      0.15380210869566
  30     -0.12357144175821
  31    0.0089110398096734
  32    -6.5937873123657e-06
  33    0.00015448160670803
  34      0.15220631533007
  35     -0.12392679155598
  36    0.0094586701103732
  37    -0.00049326656187839
  38    -0.00073548535616911
  39      0.15222033640805
  40     -0.12392501271836
  41    0.0094497836626274
  42    0.0004857358750414
  43    -0.0007388267870487
  44      0.16750568092641
  45      0.50638604326353
  46     -0.29735557418509
  47      -0.1589741143307
  48     0.092120649792146
  49      0.16658434742259
  50      0.50615074892623
  51     -0.29775313149424
  52    -4.4037972832783e-06
  53     -0.18344457555429
  54      0.16751064595798
  55      0.50639918464063
  56      -0.2973570068535
  57      0.15897311315638
  58      0.09212499354057
 Sym= A
 Ene=              14
 Spin= Alpha
 Occup=    0.00000
   1     0.062649144209614
   2     0.073253443510115
   3      -1.2085642076942
   4     -0.12836255152304
   5    -0.024599362356119
   6    -0.014333723908838
   7     -0.43406822831035
   8      0.80621489882582
   9      0.46491058437404
  10    0.0029626015188406
  11     0.058138410947137
  12     0.021488175647423
  13    -0.031856663915391
  14      0.10063543693895
  15     -0.40676829955008
  16     -0.71635631441288
  17       3.4075820780084
  18      0.16841102694473
  19    -0.071055348210456
  20    -0.040562470592223
  21     -0.10003262192459
  22      -2.3643726250251
  23      -1.3641895030519
  24     -0.11866106573856
  25     -0.14624341207945
  26      0.30719163685339
  27     -0.14238903329692
  28     -0.25365926420562
  29    -0.051599555056073
  30       0.3095339855228
  31    -0.036910504930646
  32       0.2588909682894
  33     0.019079306964879
  34      -1.6743302718086
  35      -1.8963414345771
  36      0.25650051077144
  37     -0.40697506081469
  38     -0.23416808075214
  39    -0.049264761265577
  40      0.30982815619205
  41    -0.037883758748691
  42      0.14555772959269
  43      0.21578279141987
  44     0.054544570952013
  45     -0.12446249334688
  46     0.032290084034252
  47    -0.049877888044396
  48     -0.03953773533729
  49     0.055292133877092
  50     -0.12421344339798
  51     0.032477172579059
  52    -0.059003179766732
  53    -0.023720250575818
  54      0.11030981346662
  55      0.42191960776879
  56    -0.045775666465744
  57    -0.019701608478433
  58    -0.011571648370568
 Sym= A
 Ene=              15
 Spin= Alpha
 Occup=    0.00000
   1     0.062709169531842
   2     0.073394507242105
   3      -1.2079661250977
   4     -0.12816654716211
   5    -2.7565817080279e-06
   6     0.028217189316754
   7     -0.43379842282385
   8    5.0272766107332e-05
   9     -0.93147676627887
  10     0.035323964845501
  11     -0.11597738822466
  12    -1.4353336910741e-06
  13    -0.013235113270365
  14    6.4267173991925e-06
  15     -0.40670068469738
  16     -0.71624948141835
  17       3.4072719481574
  18      0.16828445163385
  19    8.0962545203622e-06
  20     0.082309713382753
  21    -0.099602805549015
  22    -0.00015471847062156
  23       2.7309850047547
  24       0.3419200328971
  25      0.29304185862138
  26    -2.6036160569704e-05
  27      0.12235022782502
  28    -2.2906744400331e-05
  29      -1.6764259711618
  30       -1.896677425103