[Molden Format]
made by pyscf v[2.0.1]
[Atoms] (AU)
C   1   6     0.00000000000000     0.00000000000000     0.00000000000000
C   2   6     2.88195139270757     0.00000000000000     0.00000000000000
H   3   1     3.63065534584939     0.00000000000000     1.92469232395612
H   4   1     3.63065534584939    -1.66683244701491    -0.96234616197806
H   5   1     3.63065534584939     1.66683244701491    -0.96234616197806
H   6   1    -0.74870395314182     0.00000000000000    -1.92469232395612
H   7   1    -0.74870395314182     1.66683244701490     0.96234616197806
H   8   1    -0.74870395314182    -1.66683244701490     0.96234616197806
[GTO]
1 0
 s    8 1.00
                  6665  0.00069158396281299
                  1000  0.0053257961529341
                   228   0.027060721042034
                 64.71    0.10165684614077
                 21.06     0.2745748236174
                 7.495    0.44829431892377
                 2.797    0.28490261071525
                0.5215   0.015194859206082
 s    8 1.00
                  6665  -0.00029326965268655
                  1000  -0.0023180354739745
                   228  -0.011499786038565
                 64.71  -0.046826727009787
                 21.06   -0.12846616875047
                 7.495   -0.30126627246289
                 2.797   -0.25563070233011
                0.5215      1.093793361012
 s    1 1.00
                0.1596                   1
 p    3 1.00
                 9.439   0.056979251590039
                 2.002    0.31320721150073
                0.5456    0.76037674173753
 p    1 1.00
                0.1517                   1
 d    1 1.00
                  0.55                   1

2 0
 s    8 1.00
                  6665  0.00069158396281299
                  1000  0.0053257961529341
                   228   0.027060721042034
                 64.71    0.10165684614077
                 21.06     0.2745748236174
                 7.495    0.44829431892377
                 2.797    0.28490261071525
                0.5215   0.015194859206082
 s    8 1.00
                  6665  -0.00029326965268655
                  1000  -0.0023180354739745
                   228  -0.011499786038565
                 64.71  -0.046826727009787
                 21.06   -0.12846616875047
                 7.495   -0.30126627246289
                 2.797   -0.25563070233011
                0.5215      1.093793361012
 s    1 1.00
                0.1596                   1
 p    3 1.00
                 9.439   0.056979251590039
                 2.002    0.31320721150073
                0.5456    0.76037674173753
 p    1 1.00
                0.1517                   1
 d    1 1.00
                  0.55                   1

3 0
 s    3 1.00
                 13.01   0.033498726389998
                 1.962    0.23480080117413
                0.4446     0.8136829578829
 s    1 1.00
                 0.122                   1
 p    1 1.00
                 0.727                   1

4 0
 s    3 1.00
                 13.01   0.033498726389998
                 1.962    0.23480080117413
                0.4446     0.8136829578829
 s    1 1.00
                 0.122                   1
 p    1 1.00
                 0.727                   1

5 0
 s    3 1.00
                 13.01   0.033498726389998
                 1.962    0.23480080117413
                0.4446     0.8136829578829
 s    1 1.00
                 0.122                   1
 p    1 1.00
                 0.727                   1

6 0
 s    3 1.00
                 13.01   0.033498726389998
                 1.962    0.23480080117413
                0.4446     0.8136829578829
 s    1 1.00
                 0.122                   1
 p    1 1.00
                 0.727                   1

7 0
 s    3 1.00
                 13.01   0.033498726389998
                 1.962    0.23480080117413
                0.4446     0.8136829578829
 s    1 1.00
                 0.122                   1
 p    1 1.00
                 0.727                   1

8 0
 s    3 1.00
                 13.01   0.033498726389998
                 1.962    0.23480080117413
                0.4446     0.8136829578829
 s    1 1.00
                 0.122                   1
 p    1 1.00
                 0.727                   1

[5d]
[7f]
[9g]

[MO]
 Sym= A
 Ene=               0
 Spin= Alpha
 Occup=    1.00000
   1       1.0026227349517
   2    -0.00041385960567744
   3    -0.012703988461298
   4    0.00096679902670207
   5    -5.5608817687874e-08
   6    -2.1446257529663e-08
   7    -0.00015276864829394
   8    -2.6418386176929e-08
   9    -1.054647875285e-08
  10    9.044808043951e-05
  11    2.2609632217002e-09
  12    -3.2353900516354e-09
  13    -0.00015665777808991
  14    3.542705088012e-09
  15    -1.0123974267042e-05
  16    -0.00043724324503564
  17    0.0018352042689127
  18    0.0011408103607007
  19    2.6147910032961e-08
  20    2.8441591542212e-08
  21    -0.00058963142158059
  22    1.3266660481246e-08
  23    1.3669285368894e-08
  24    0.00024902810614213
  25    2.2053816569367e-09
  26    -1.989838858874e-09
  27    -0.00043132584817341
  28    3.7767874826386e-09
  29    3.6803690788222e-05
  30    0.00019486785952771
  31    -3.7171174645531e-05
  32    9.1503392426383e-10
  33    -1.1109827136211e-05
  34    3.6740927351037e-05
  35    0.00019483409383331
  36    -3.7168977885983e-05
  37    9.6190892690649e-06
  38    5.5539787862827e-06
  39    3.6787451480876e-05
  40    0.00019486204098612
  41    -3.7170632260375e-05
  42    -9.6199758730647e-06
  43    5.5555472575063e-06
  44    -0.0029105614503863
  45    0.00073738654116473
  46    -0.00021443503417546
  47    -1.7761272626851e-09
  48    -0.00079421672745043
  49    -0.0029106361763261
  50    0.00073734874660465
  51    -0.00021443762818435
  52    0.00068781446292732
  53    0.00039711017193059
  54    -0.002910549014131
  55    0.0007373903803002
  56    -0.00021443462430629
  57    -0.00068781196387529
  58    0.00039710667820715
 Sym= A
 Ene=               1
 Spin= Alpha
 Occup=    1.00000
   1    -1.0122652889233e-05
   2    -0.00043726259474846
   3    0.0018351951426948
   4    -0.001140780951789
   5    -4.255854405615e-10
   6    -1.7329534166088e-08
   7    0.0005896442002379
   8    1.6646587272073e-09
   9    -5.9838359656338e-09
  10    0.00024902348117127
  11    -4.5181952246935e-09
  12    1.0110338103691e-09
  13    -0.00043132180081826
  14    -4.6397614887521e-09
  15       1.0026227320884
  16    -0.00041374146841443
  17    -0.012703917737238
  18    -0.00096676120348685
  19    -9.5556932100761e-08
  20    -1.072106808869e-07
  21    0.0001527879474855
  22    -4.4512481859491e-08
  23    -4.9612508864224e-08
  24    9.0443182017046e-05
  25    -3.5286582079475e-09
  26    5.0689926400587e-09
  27    -0.00015666319625235
  28    -3.8771301068231e-09
  29    -0.0029106034856711
  30    0.00073734881003159
  31    0.00021443659799078
  32    -2.9684094210768e-09
  33    0.00079421359450347
  34    -0.0029103934699304
  35    0.00073743837482637
  36    0.00021442945599808
  37    -0.00068779943008667
  38    -0.00039710277164375
  39    -0.0029105374466307
  40    0.00073737559790377
  41    0.00021443436446268
  42    0.00068780402649207
  43    -0.00039710885300362
  44    3.6766240126889e-05
  45    0.00019484575046498
  46    3.7170043919236e-05
  47    1.6300002694068e-10
  48    1.1108041201959e-05
  49    3.6761283198101e-05
  50    0.00019486291435859
  51    3.717004712779e-05
  52    -9.6178824875396e-06
  53    -5.5533219079191e-06
  54    3.6749703769363e-05
  55    0.00019484472767106
  56    3.7169535294461e-05
  57    9.6185393760556e-06
  58    -5.5535129464889e-06
 Sym= A
 Ene=               2
 Spin= Alpha
 Occup=    1.00000
   1    -0.0024801021205119
   2    -0.019991786008919
   3    -0.012483200562536
   4    -0.024134229307992
   5    -0.0011593295404596
   6    -0.00066863481979896
   7    -0.013606605714109
   8    0.0053171914194712
   9    0.0030701879371718
  10    -0.0038982268838998
  11    -0.0084265751518315
  12    0.0031883127354972
  13    0.0030703303658599
  14    -0.014595302424637
  15    -0.0050121341161655
  16      0.18337098754157
  17      0.10557361272068
  18      0.12357236704989
  19     -0.30044335703171
  20      -0.1734599170485
  21     0.061056986778286
  22     -0.13995648746131
  23    -0.080803400166771
  24    -0.0043129101126157
  25    -0.0070430326325774
  26     0.015939502388801
  27    -0.010935067152306
  28    -0.012198911159009
  29    -0.019612152811554
  30    -0.037142842095118
  31    0.0025760914117419
  32    -0.0093333928854655
  33    -0.0079705883006835
  34      0.43309067740856
  35      0.16026994083689
  36    -0.012857707534599
  37     0.026019850055655
  38     0.015022601433549
  39    -0.019613557677147
  40    -0.037143371376256
  41    0.0025761385645326
  42    -0.011569347593291
  43    -0.0040976738427737
  44    -0.012610605265654
  45    -0.013967016781164
  46    -0.0019276165038749
  47    0.00051804789163048
  48    0.00070996685332696
  49     0.024066861788315
  50     0.043332088670857
  51    -0.00030913329172231
  52    0.0011828225675864
  53    0.00068292272035104
  54    -0.012609811599745
  55     -0.01396680561627
  56    -0.0019275906481197
  57    0.00087392629502034
  58    9.3648390241567e-05
 Sym= A
 Ene=               3
 Spin= Alpha
 Occup=    1.00000
   1    -0.0050117503631752
   2      0.18337239981049
   3      0.10557455926738
   4     -0.12357118847335
   5    -1.0781537305762e-06
   6     -0.34692102193339
   7    -0.061056437377803
   8    -5.1749628455084e-07
   9     -0.16160733556235
  10     0.019596215880995
  11     0.014086068235129
  12    -6.566445248147e-08
  13    0.0028689575964383
  14    8.1915613303202e-08
  15    -0.0024801637233547
  16    -0.019992165154066
  17    -0.012483287185448
  18     0.024132175773499
  19    7.7839921071898e-07
  20    -0.0013382028839825
  21     0.013605637981492
  22    3.836820330441e-07
  23    0.0061399642255496
  24    0.00088418668824748
  25     0.016853170126731
  26    -5.2991400037196e-08
  27    0.0058316636417398
  28    8.4297319724611e-08
  29     0.024066078227858
  30     0.043331782532152
  31    0.0003091143187126
  32    2.6175129643708e-08
  33    0.0013658927592996
  34    -0.012611751425315
  35    -0.013967561426164
  36    0.0019276106090896
  37    0.00035575090629746
  38    0.00080358072610334
  39    -0.012610440272588
  40    -0.013966841024118
  41    0.0019275645840545
  42    -0.00035578114442388
  43    0.00080362840852974
  44      0.43309054304462
  45      0.16026967067618
  46     0.012857744330109
  47    -3.4936455507254e-08
  48      0.03004517978877
  49    -0.019613191796327
  50      -0.0371435333102
  51    -0.0025760856938379
  52    -0.0022360465826711
  53    -0.012068202904313
  54    -0.019611467165381
  55    -0.037142673652335
  56    -0.0025760259380723
  57    0.0022360932268951
  58    -0.012068270175512
 Sym= A
 Ene=               4
 Spin= Alpha
 Occup=    1.00000
   1    -0.0050117923461158
   2      0.18337232136017
   3      0.10557441066089
   4      -0.1235727379973
   5     -0.30044154795315
   6      0.17346093713821
   7    -0.061057178939816
   8     -0.13995567081049
   9      0.08080379915745
  10    -0.0043129105122318
  11    -0.0070428835584746
  12    -0.015939420880316
  13    -0.010935090140032
  14     0.012198902896618
  15    -0.0024801299776276
  16    -0.019991944298934
  17      -0.0124832631914
  18     0.024133871480671
  19    -0.0011579849272647
  20    0.00067254737451387
  21     0.013606449438449
  22    0.0053177826169536
  23    -0.0030683849322855
  24     -0.00389809035421
  25    -0.0084264652701685
  26    -0.0031883645591149
  27    0.0030704872953289
  28      0.01459526910451
  29    -0.012607460852602
  30     -0.01396568455547
  31    0.0019275062321506
  32    0.00051808633588085
  33    -0.00071011926683339
  34    -0.012612559104241
  35    -0.013967799053208
  36    0.0019276790757785
  37    0.00087374752157584
  38    -9.3654109246098e-05
  39     0.024065909627959
  40     0.043331630136547
  41    0.00030916272137698
  42    0.0011829246545184
  43    -0.0006828397727803
  44    -0.019611971751595
  45    -0.037142660048931
  46    -0.0025760826581953
  47    -0.0093333391525497
  48    0.0079706246997038
  49     -0.01961120098074
  50     -0.03714279791159
  51    -0.0025760606040936
  52    -0.011569513312364
  53    0.0040975716234117
  54      0.43309047927999
  55      0.16026958410549
  56     0.012857700033192
  57     0.026019919854076
  58    -0.015022586227671
 Sym= A
 Ene=               5
 Spin= Alpha
 Occup=    1.00000
   1    -0.0024801425887571
   2     -0.01999575923579
   3    -0.012485750121337
   4    -0.024135540862143
   5    3.3592504644187e-06
   6     0.001337718812365
   7    -0.013607184415279
   8    1.5583979857664e-06
   9    -0.0061401731158808
  10    0.00088434238954009
  11      0.01685314826788
  12    1.7463920132002e-07
  13    0.0058314268947729
  14    -1.2026563255012e-07
  15    -0.005011631661295
  16      0.18337124050383
  17      0.10557350791891
  18      0.12357574382181
  19    3.4392756265843e-07
  20      0.34692016827008
  21     0.061058552008577
  22    9.4748036666315e-08
  23      0.16160694727068
  24     0.019596393948887
  25      0.01408605700528
  26    1.8075858059875e-08
  27    0.0028685689955866
  28    -1.4968932170663e-07
  29      0.43309073439489
  30      0.16026992560233
  31     -0.01285763720306
  32    4.4916371369141e-09
  33     -0.03004520177567
  34    -0.019611121809319
  35    -0.037142231777279
  36    0.0025761267472559
  37    0.0022361300224799
  38     0.012068243022881
  39    -0.019611033033004
  40    -0.037142654719778
  41    0.0025761278343015
  42    -0.0022361689289536
  43     0.012068270672041
  44     0.024065758853532
  45     0.043332114496799
  46    -0.0003092334060245
  47    1.0374609856147e-07
  48    -0.0013659921334927
  49    -0.012609442879492
  50    -0.013965930502662
  51    -0.0019276387406632
  52    -0.00035572511319193
  53    -0.00080365431151857
  54    -0.012614462227855
  55     -0.01396807381656
  56    -0.0019278094576446
  57    0.00035556133814623
  58    -0.00080343996027587
 Sym= A
 Ene=               6
 Spin= Alpha
 Occup=    1.00000
   1    -0.0050115593081974
   2      0.18337171673881
   3      0.10557393161876
   4     -0.12357394527842
   5       0.3004426730167
   6      0.17345902809604
   7    -0.061057714820536
   8      0.13995615321712
   9     0.080802989803931
  10    -0.0043127755125178
  11    -0.0070430058897057
  12     0.015939457440048
  13    -0.010935210113817
  14    -0.012198844369604
  15    -0.0024800579287654
  16    -0.019994536239134
  17    -0.012484893222501
  18     0.024134107416583
  19    0.0011601274556645
  20    0.00066843951552591
  21     0.013606521484069
  22    -0.0053168063287593
  23    -0.003070261600389
  24    -0.0038982338783442
  25    -0.0084265397939708
  26    0.0031882629712564
  27    0.0030703409726586
  28    -0.014595236540226
  29    -0.012612104052758
  30    -0.013967166577748
  31    0.0019276847001998
  32    -0.00051802183695189
  33    -0.00070978081660816
  34     0.024064874401577
  35     0.043331572824241
  36    0.00030921950884403
  37    -0.0011829834868196
  38    -0.00068303509899717
  39    -0.012610508824609
  40    -0.013966664391265
  41      0.00192763203859
  42    -0.00087379917712695
  43    -9.3711168323438e-05
  44    -0.019610536950981
  45      -0.0371422982064
  46    -0.0025760633822237
  47    0.0093333701598998
  48    0.0079707138855656
  49      0.43309058798762
  50       0.1602697089078
  51     0.012857677139906
  52    -0.026019883287585
  53    -0.015022634761217
  54    -0.019612514048938
  55    -0.037142999147875
  56    -0.0025761293499508
  57     0.011569408392606
  58    0.0040975983578475
 Sym= A
 Ene=               7
 Spin= Alpha
 Occup=    1.00000
   1    -0.0024801322637892
   2     -0.01999466863362
   3    -0.012485034786559
   4     -0.02413499130878
   5    0.0011589335177496
   6    -0.00066897271101955
   7     -0.01360693984815
   8    -0.0053173273368944
   9    0.0030700660251928
  10    -0.0038982028845296
  11    -0.0084266501503676
  12    -0.0031883068011709
  13     0.003070285268985
  14     0.014595197102734
  15    -0.0050118002044064
  16      0.18337154404723
  17      0.10557376908624
  18      0.12357480981967
  19      0.30044086452995
  20     -0.17346173870733
  21     0.061058123659327
  22      0.13995533390447
  23    -0.080804242305551
  24    -0.0043128644417846
  25    -0.0070430904723582
  26    -0.015939374333138
  27    -0.010935332388616
  28     0.012198828787945
  29    -0.019612657260225
  30    -0.037143157154657
  31    0.0025761584254175
  32    0.0093333161675027
  33    -0.0079706129975514
  34    -0.019609868533178
  35     -0.03714192366747
  36    0.0025760631956085
  37     0.011569556476626
  38    -0.0040975649311777
  39      0.43309066030037
  40      0.16026982546311
  41     -0.01285765702127
  42    -0.026019936482944
  43     0.015022551058841
  44    -0.012611615426072
  45    -0.013967150728272
  46    -0.0019276932142228
  47    -0.0005180556004341
  48    0.00070983279122077
  49    -0.012611200136494
  50    -0.013966716593912
  51    -0.0019276768012138
  52    -0.00087376161768947
  53    9.3740777756446e-05
  54     0.024065751399564
  55     0.043331956521511
  56    -0.00030921301363156
  57    -0.0011829516068838
  58    0.00068298563087791
 Sym= A
 Ene=               8
 Spin= Alpha
 Occup=    1.00000
   1    0.0055360238880433
   2     -0.19643196830275
   3     -0.14788595835059
   4     -0.36762592988101
   5    -1.1995161061926e-06
   6    -1.6873902996521e-06
   7     -0.17054113040654
   8    -5.3026523775503e-07
   9    -7.5256427868026e-07
  10      0.01593712277396
  11    -1.5177936530354e-08
  12    -4.78202909625e-08
  13    -0.027603764477653
  14    -2.2565364304633e-08
  15     0.005536133776832
  16     -0.19643482034008
  17       -0.147887615104
  18      0.36762453516534
  19    -1.4669655398434e-06
  20    -1.7237230917485e-06
  21      0.17054046499887
  22    -6.6008626773156e-07
  23    -7.7020036747301e-07
  24     0.015936914270779
  25    1.1925144341939e-08
  26    6.4913496155916e-08
  27    -0.027603691770364
  28    -1.3787710929234e-09
  29      0.02242161249006
  30     0.037537309171618
  31    0.0094389211734162
  32    -4.3370187978677e-08
  33    0.0013440022531299
  34     0.022424704510789
  35     0.037538375345185
  36    0.0094388182729398
  37    -0.0011637756566603
  38    -0.00067193159742281
  39     0.022422646789538
  40     0.037537642157199
  41    0.0094388869633796
  42    0.0011638541650219
  43    -0.00067202700382586
  44     0.022426175919656
  45     0.037538554024121
  46    -0.0094387754539437
  47    -3.4566636489208e-08
  48    -0.0013436297723017
  49     0.022423354012748
  50     0.037537628438978
  51    -0.0094388689424002
  52    0.0011637740769274
  53    0.0006718759810387
  54     0.022424974408129
  55     0.037538134008265
  56    -0.0094388154904248
  57    -0.0011637066440067
  58    0.00067179713450988
 Sym= A
 Ene=               9
 Spin= Alpha
 Occup=    0.00000
   1     -0.17851168852521
   2     -0.23976770809579
   3       3.6841679006605
   4      0.32231198563925
   5    -0.00037860957152612
   6     0.014025037106787
   7       1.7647713986235
   8    -0.00054620211765324
   9    -0.014933613863277
  10    -0.090764604439948
  11    -0.002606033190417
  12    -0.0026247501896445
  13      0.14771207003876
  14    0.00024692186008033
  15      0.26398735973228
  16      0.50519654261769
  17      -2.0201461295341
  18     -0.33263183560746
  19    -0.00014834239712467
  20    -0.00062050384249147
  21       3.6824426524512
  22    -0.00068628933570173
  23     0.017522193119531
  24      0.13767583557461
  25    -8.4568203172763e-05
  26    0.00089626980393946
  27     -0.23527663657587
  28    -0.00033635865369721
  29     -0.19264120923984
  30     -0.52102669749466
  31      -0.2974304919812
  32    -9.3860150353328e-05
  33       0.1913325191231
  34     -0.18553510080542
  35     -0.50916092307625
  36      -0.2982224274394
  37      -0.1639386751665
  38    -0.096378644756751
  39     -0.18442201413972
  40     -0.50854644649232
  41     -0.29853056405291
  42      0.16351810433577
  43    -0.096241645696688
  44     -0.15631304251926
  45      0.11020630056766
  46    0.0099619527796958
  47    -0.00061052597805409
  48    0.0075655307713077
  49      -0.1644487336783
  50      0.11787703778752
  51    0.0068851955191224
  52    -0.0014883933620326
  53    0.0016812999658437
  54     -0.16660804210317
  55      0.11758477572326
  56    0.0060245413742062
  57    0.00042132013778988
  58    0.0015960487254748
 Sym= A
 Ene=              10
 Spin= Alpha
 Occup=    0.00000
   1      0.07328850866304
   2      0.10220719585091
   3       -1.219244084558
   4     -0.14891796132089
   5    0.00012019666664501
   6     -0.02001870488051
   7     -0.47499349838253
   8    -0.00015033623833147
   9     -0.45155153541205
  10    -0.015203553601676
  11     -0.12468108172247
  12    0.00065764569130476
  13    -0.068205184985583
  14    -0.00014726808395266
  15     -0.41159089954295
  16      -0.7266133918474
  17       3.4397779588098
  18      0.16783801966711
  19    -0.00037234143709553
  20     0.082168210771921
  21     -0.16277309927715
  22    0.00048303600087569
  23       2.5594709269629
  24      0.33907965439064
  25      0.31473978937917
  26    0.0022190018869469
  27      0.13351565820667
  28    -2.7957621028015e-05
  29      -1.6520493603146
  30      -1.8004942879167
  31        0.265824879889
  32    -0.00068345554038808
  33      0.46613384815496
  34    -0.050930593311355
  35      0.27581404113801
  36    -0.035138878744655
  37      0.11216546916954
  38     -0.22189007824212
  39    -0.049663015648544
  40      0.27513207704167
  41    -0.035791816901021
  42     -0.11305163355185
  43     -0.22215972636654
  44      0.10621576525382
  45     0.058733683330296
  46      0.10017920085076
  47    0.00018293247174812
  48     0.042898579360961
  49     0.027693607643891
  50     0.028833339710904
  51    -0.057686145784096
  52    0.0023732829693347
  53     0.042107259172098
  54     0.028232583947605
  55     0.028698646976366
  56    -0.057451301658878
  57    -0.0020557361143956
  58     0.042136514684765
 Sym= A
 Ene=              11
 Spin= Alpha
 Occup=    0.00000
   1     0.051055735880178
   2      0.04634584420807
   3      -1.1791418071978
   4     -0.12676170543292
   5    -0.017343228159344
   6    0.0065784985133391
   7     -0.45427505381028
   8       0.4145219960162
   9      0.23491290413651
  10     0.041785573664852
  11     0.062390077280973
  12    -0.049131586732895
  13    -0.022721991954347
  14      0.11282932081151
  15     -0.40918189401796
  16     -0.72185640174758
  17       3.4090642829336
  18      0.16687618561924
  19    -0.071154681599112
  20     -0.04129598405287
  21     -0.13552854519851
  22      -2.2268874986655
  23       -1.282869998324
  24     -0.12875697261035
  25     -0.15642789978426
  26      0.31548088712523
  27     -0.14091990749571
  28     -0.27115818313737
  29    -0.049417169406001
  30      0.27319619267077
  31    -0.036616567558264
  32       0.2485943404648
  33     0.014302629607703
  34      -1.6551455834365
  35      -1.8058223280222
  36      0.26509002625531
  37     -0.40479289663939
  38     -0.23397056361346
  39    -0.048184048854136
  40      0.27462659495005
  41    -0.036400508564912
  42      0.13640629438898
  43      0.20806402404867
  44     0.045463072918158
  45       0.0364969128857
  46    -0.053360707751547
  47    -0.038358825181953
  48    -0.011757667850733
  49      0.13652443078698
  50     0.052854872220008
  51      0.10864943362819
  52    -0.057240558733121
  53    -0.032767310549955
  54     0.030838023963473
  55     0.036812599571805
  56     -0.05704352927958
  57    -0.037226344854751
  58    -0.022433784496439
 Sym= A
 Ene=              12
 Spin= Alpha
 Occup=    0.00000
   1     -0.38745468540564
   2     -0.67912965193979
   3       3.2635491037257
   4     -0.17535861999196
   5    -0.00021366851488891
   6     -0.16058663237283
   7      0.17150016169393
   8    -0.0029499657737679
   9       2.6960004871983
  10     -0.19623344452656
  11     -0.27313650592326
  12    -0.0020669492050106
  13      -0.1801278848247
  14    -2.7833497255913e-05
  15     0.059827717873733
  16     0.070330689338265
  17      -1.1742535633592
  18      0.12926476943224
  19    4.0889044140192e-05
  20     0.039359562724389
  21      0.44827037336257
  22    0.00074568720367867
  23     -0.84346589968746
  24     0.038482127766344
  25      0.10870512014314
  26    -0.00070375411302553
  27     -0.02292693425098
  28    -0.0002791736543031
  29      0.10714037508813
  30      0.23131666317798
  31     0.093500801974516
  32    0.00016129075776264
  33     0.023688823615595
  34     0.044364937305364
  35    -0.058102425786271
  36    -0.042942131412463
  37    -0.017181093652636
  38     0.074243782810047
  39      0.04399192296587
  40    -0.058153765635687
  41    -0.042875849442871
  42     0.017299680394833
  43     0.074361987238843
  44      0.35823012615684
  45       0.9736085460281
  46     0.080876454559839
  47    -0.0001855221833209
  48     0.042069603717871
  49      -1.0322365380437
  50      -1.0633833037472
  51     -0.13941466586642
  52      0.36132170614923
  53     -0.11035363583576
  54      -1.0351707243574
  55      -1.0659006070484
  56     -0.14038069446835
  57     -0.36215110637679
  58     -0.11006153774039
 Sym= A
 Ene=              13
 Spin= Alpha
 Occup=    0.00000
   1     -0.19518802987473
   2     -0.36599914676314
   3       1.6023170003546
   4     -0.35100496520561
   5    0.00019920258995435
   6    -0.065810968960234
   7       3.6238970930614
   8    -0.00013616932169022
   9      0.08385690373975
  10     -0.11820352378455
  11    0.0052197528262627
  12    0.0010583133416975
  13      0.22723994205759
  14    -0.00025527674020778
  15      0.15932660554154
  16      0.20885358046453
  17      -3.4464678836378
  18      0.29993736008895
  19    0.00033775083300611
  20    0.0018203932560653
  21       1.6818558687394
  22    0.00073461921131597
  23    -0.029202388164098
  24     0.080531641596978
  25    0.0049241702185272
  26    -0.0022852908551315
  27     -0.13763858869749
  28    0.00019492111029201
  29      0.14765706974745
  30     -0.11606089040022
  31     0.011328946999473
  32    0.00050342714732795
  33    0.0048403888822475
  34       0.1454674559759
  35     -0.12681090133945
  36    0.0067517626706868
  37    -0.0034076742929376
  38    0.00050880896062938
  39      0.14353968439198
  40      -0.1271824434527
  41    0.0074620100761305
  42    0.0043213962396909
  43    0.00056164470752842
  44      0.21259493482415
  45      0.58299982159866
  46     -0.30264687677154
  47    0.00025926473167219
  48      0.17409121479128
  49       0.2350123636008
  50       0.5299892813056
  51     -0.29478591233412
  52     -0.16966013422265
  53     -0.10909185601908
  54       0.2357672535227
  55      0.52982631369944
  56     -0.29449316795599
  57      0.17011800980707
  58     -0.10905727813444
 Sym= A
 Ene=              14
 Spin= Alpha
 Occup=    0.00000
   1      -0.5436118391884
   2      -1.0677622384301
   3       3.5380458645001
   4    -0.065909079455625
   5    -0.069205433657606
   6      0.28273759075494
   7      0.36697823345617
   8       2.2965569098276
   9      -1.1860026991352
  10     0.031708856064078
  11     0.075075112769103
  12      0.25039672085418
  13     0.029680794604048
  14     -0.24222336164223
  15     0.066747623739616
  16      0.07949466847691
  17      -1.4187957357275
  18      0.15132504407967
  19     0.031715718296154
  20    -0.019065037742681
  21      0.55859832488319
  22     -0.69380504557825
  23      0.39633930487926
  24     0.022084877939696
  25    -0.049228589121707
  26    -0.024072192335691
  27    -0.045258109063046
  28     0.095646864949025
  29     0.047615886699653
  30    -0.068276691937588
  31    -0.033000520200677
  32     0.069737867678852
  33    -0.018609832714675
  34     0.068248334314973
  35    -0.050055196621549
  36     -0.04423812350067
  37     0.057069057160574
  38    -0.045415673856629
  39      0.11296721408532
  40      0.21005479211248
  41      0.09327102275915
  42     0.021324387401685
  43    -0.010144964714625
  44     -0.71729776742049
  45     -0.93194023664328
  46    -0.079981259025946
  47     -0.26954087907139
  48    -0.085342978514829
  49      -1.0633100576114
  50      -1.0897346008496
  51     -0.15734624179736
  52     0.087752672976396
  53      0.35336053675115
  54       0.3912126004151
  55       0.9367688376083
  56     0.082802011569112
  57     0.071847589670437
  58    -0.052197362825866
 Sym= A
 Ene=              15
 Spin= Alpha
 Occup=    0.00000
   1     0.051009571758077
   2     0.046268341617985
   3       -1.178838625142
   4     -0.12680611102449
   5     0.017519240532742
   6    0.0065389540836204
   7     -0.45430812843782
   8     -0.41333252139715
   9      0.23593949754648
  10     0.041943026340267
  11     0.062291671206981
  12     0.051395570913241
  13    -0.023230688334131
  14     -0.11278017922856
  15     -0.40907584942363
  16     -0.72163286856667
  17       3.4085847208031
  18      0.16671163802076
  19     0.070762096755159
  20    -0.041327530530754
  21      -0.1351113290412
  22        2.225182883054
  23      -1.2846261953669
  24     -0.12972345355179
  25     -0.15669373025904
  26     -0.31176889692696
  27     -0.14032266410444
  28      0.27108226674172
  29    -0.048454041598983
  30      0.27398727924716
  31    -0.037020781732759