[Molden Format]
made by pyscf v[2.0.1]
[Atoms] (AU)
C   1   6     0.00000000000000     0.00000000000000     0.00000000000000
C   2   6     2.88195139270757     0.00000000000000     0.00000000000000
H   3   1     3.63065534584939     0.00000000000000     1.92469232395612
H   4   1     3.63065534584939    -1.66683244701491    -0.96234616197806
H   5   1     3.63065534584939     1.66683244701491    -0.96234616197806
H   6   1    -0.74870395314182     0.96234616197806    -1.66683244701490
H   7   1    -0.74870395314182     0.96234616197806     1.66683244701490
H   8   1    -0.74870395314182    -1.92469232395612     0.00000000000000
[GTO]
1 0
 s    8 1.00
                  6665  0.00069158396281299
                  1000  0.0053257961529341
                   228   0.027060721042034
                 64.71    0.10165684614077
                 21.06     0.2745748236174
                 7.495    0.44829431892377
                 2.797    0.28490261071525
                0.5215   0.015194859206082
 s    8 1.00
                  6665  -0.00029326965268655
                  1000  -0.0023180354739745
                   228  -0.011499786038565
                 64.71  -0.046826727009787
                 21.06   -0.12846616875047
                 7.495   -0.30126627246289
                 2.797   -0.25563070233011
                0.5215      1.093793361012
 s    1 1.00
                0.1596                   1
 p    3 1.00
                 9.439   0.056979251590039
                 2.002    0.31320721150073
                0.5456    0.76037674173753
 p    1 1.00
                0.1517                   1
 d    1 1.00
                  0.55                   1

2 0
 s    8 1.00
                  6665  0.00069158396281299
                  1000  0.0053257961529341
                   228   0.027060721042034
                 64.71    0.10165684614077
                 21.06     0.2745748236174
                 7.495    0.44829431892377
                 2.797    0.28490261071525
                0.5215   0.015194859206082
 s    8 1.00
                  6665  -0.00029326965268655
                  1000  -0.0023180354739745
                   228  -0.011499786038565
                 64.71  -0.046826727009787
                 21.06   -0.12846616875047
                 7.495   -0.30126627246289
                 2.797   -0.25563070233011
                0.5215      1.093793361012
 s    1 1.00
                0.1596                   1
 p    3 1.00
                 9.439   0.056979251590039
                 2.002    0.31320721150073
                0.5456    0.76037674173753
 p    1 1.00
                0.1517                   1
 d    1 1.00
                  0.55                   1

3 0
 s    3 1.00
                 13.01   0.033498726389998
                 1.962    0.23480080117413
                0.4446     0.8136829578829
 s    1 1.00
                 0.122                   1
 p    1 1.00
                 0.727                   1

4 0
 s    3 1.00
                 13.01   0.033498726389998
                 1.962    0.23480080117413
                0.4446     0.8136829578829
 s    1 1.00
                 0.122                   1
 p    1 1.00
                 0.727                   1

5 0
 s    3 1.00
                 13.01   0.033498726389998
                 1.962    0.23480080117413
                0.4446     0.8136829578829
 s    1 1.00
                 0.122                   1
 p    1 1.00
                 0.727                   1

6 0
 s    3 1.00
                 13.01   0.033498726389998
                 1.962    0.23480080117413
                0.4446     0.8136829578829
 s    1 1.00
                 0.122                   1
 p    1 1.00
                 0.727                   1

7 0
 s    3 1.00
                 13.01   0.033498726389998
                 1.962    0.23480080117413
                0.4446     0.8136829578829
 s    1 1.00
                 0.122                   1
 p    1 1.00
                 0.727                   1

8 0
 s    3 1.00
                 13.01   0.033498726389998
                 1.962    0.23480080117413
                0.4446     0.8136829578829
 s    1 1.00
                 0.122                   1
 p    1 1.00
                 0.727                   1

[5d]
[7f]
[9g]

[MO]
 Sym= A
 Ene=               0
 Spin= Alpha
 Occup=    1.00000
   1    -1.9277057915158e-05
   2    -0.00045308779305547
   3     0.001914964349987
   4    -0.0011436961610524
   5    -4.3903455208536e-08
   6    -7.3153856142221e-09
   7    0.00058492078537854
   8    -2.3575324828341e-08
   9    -3.7495678781874e-10
  10    0.00025457041060098
  11    -2.7972518523514e-09
  12    -6.8929228447201e-10
  13    -0.00044093545722988
  14    7.5600477944798e-09
  15       1.0026280319776
  16    -0.00040324941935189
  17    -0.012735832519404
  18    -0.0009705882009827
  19    1.1990630915864e-07
  20    -6.5665980016292e-08
  21    0.00016067072892462
  22    5.7534235402028e-08
  23    -3.0336119949323e-08
  24    8.9864577145649e-05
  25    -2.2850637121132e-09
  26    -6.4075997210553e-09
  27    -0.00015565755632106
  28    6.934847597224e-09
  29    -0.0029104635568097
  30    0.00074008664847599
  31    0.00021493869747754
  32    -5.6417474895972e-07
  33    0.00079276374239029
  34    -0.0029104711085372
  35    0.00074008006618663
  36    0.00021493880177529
  37    -0.00068626784673083
  38    -0.00039687699511066
  39    -0.0029102853321484
  40    0.00074016662881843
  41    0.00021493256770707
  42    0.00068683024650076
  43    -0.00039588560438083
  44    2.4915522180409e-05
  45    0.00017947845437141
  46    3.0813129568332e-05
  47    -1.0341711064611e-05
  48    6.5457258241676e-06
  49    2.4911972206352e-05
  50    0.0001794835481898
  51    3.0812583152041e-05
  52    -4.9983041045341e-07
  53    -1.222702636257e-05
  54    2.4984044053169e-05
  55    0.00017952534800944
  56    3.0815221162762e-05
  57    1.0841414664578e-05
  58    5.681709513224e-06
 Sym= A
 Ene=               1
 Spin= Alpha
 Occup=    1.00000
   1       1.0026280368963
   2    -0.00040335745652019
   3    -0.012735923373956
   4    0.0009702534501048
   5    -1.2186123141186e-07
   6    1.2638111940136e-07
   7    -0.0001608250645865
   8    -5.7271341400196e-08
   9    6.1002879303586e-08
  10    8.9878154585772e-05
  11    -7.6484678965377e-09
  12    6.6075187449751e-09
  13    -0.00015568725179949
  14    5.522756077248e-09
  15    -1.927065647014e-05
  16    -0.00045337738077689
  17    0.0019147669791515
  18    0.0011439421724937
  19    1.3079291042499e-08
  20    -5.3379500823196e-08
  21    -0.00058480787481567
  22    1.0939145636567e-08
  23    -2.7703890987672e-08
  24    0.00025458053794102
  25    -8.2806168026737e-09
  26    -6.4051818711817e-10
  27    -0.00044095469488616
  28    6.3120221567474e-09
  29    2.4818497133998e-05
  30    0.00017947705973431
  31    -3.0801591693082e-05
  32    -5.6813330178958e-06
  33    -1.0827364208327e-05
  34    2.4885084770118e-05
  35    0.00017951433321378
  36    -3.0804219362292e-05
  37    1.2220811086932e-05
  38    4.9268302029395e-07
  39    2.4919126878141e-05
  40    0.00017954273344964
  41    -3.0804838443186e-05
  42    -6.5390559856934e-06
  43    1.0334602297894e-05
  44    -0.0029105039421618
  45    0.00074007795927783
  46    -0.00021494848131785
  47    0.00039588953486019
  48    -0.00068683940474676
  49    -0.0029103075145386
  50    0.00074017015917892
  51    -0.00021494196187518
  52    0.00039686535330127
  53    0.00068626550242373
  54    -0.0029102448833766
  55    0.0007401959351771
  56    -0.00021493965722217
  57    -0.00079275291674562
  58    5.720560807708e-07
 Sym= A
 Ene=               2
 Spin= Alpha
 Occup=    1.00000
   1    -0.0050885248691076
   2      0.18311871712508
   3      0.10620877816797
   4     -0.12360476056145
   5       0.1726320978541
   6     -0.30126258462616
   7    -0.060650219390355
   8      0.08143858740228
   9     -0.14141467654668
  10     0.011858959723271
  11     0.012078061215125
  12    -0.015358349816343
  13    -0.0017240060979798
  14    -0.0068891339068782
  15    -0.0024459358683026
  16    -0.020093522362532
  17    -0.013030864304269
  18     0.024275292539523
  19    -0.00051794644433259
  20    -0.0007977765757064
  21     0.014283208668482
  22    -0.0082705984140845
  23     0.006957990255741
  24    -0.00010516308261357
  25     0.014539251624269
  26    -0.00054032707427654
  27    0.0053040578269236
  28    -0.0081314703793826
  29     0.020963691826058
  30     0.037240152098438
  31    0.00058596265540065
  32    -4.3489083928103e-05
  33    0.0011109968286964
  34    -0.00044827088323638
  35    0.0020457821570124
  36    0.0018250272983627
  37    -7.9626573031873e-05
  38    0.00051238083044029
  39    -0.021286436621046
  40    -0.024472405084202
  41    0.0014606244941306
  42    -0.00061635300553102
  43    0.00063510540007244
  44      0.43305515069366
  45      0.16012963826077
  46     0.012755404399919
  47    -0.015208413345134
  48     0.026036537259823
  49    -0.019872003763412
  50    -0.037224447193341
  51    -0.0025654157812923
  52    0.0041807951055542
  53    -0.011421462938927
  54    -0.019401406690075
  55    -0.036530647907635
  56    -0.0025868604090684
  57    0.0080001316179298
  58    -0.0093885318292914
 Sym= A
 Ene=               3
 Spin= Alpha
 Occup=    1.00000
   1    -0.0024457822927046
   2    -0.020093614717473
   3    -0.013031004227568
   4    -0.024276468303024
   5    4.9632311985508e-05
   6    -0.00094948752535629
   7    -0.014283759256636
   8     0.010641546388148
   9    0.0018906067355945
  10    -0.001619271534141
  11    -0.0085255501121719
  12    0.0024880309251005
  13     0.004429771011762
  14    -0.014311746220956
  15    -0.0050886146955941
  16      0.18311803926222
  17      0.10620829835914
  18      0.12360565066604
  19     -0.30013633728598
  20     -0.17458308738922
  21      0.06065063619915
  22     -0.14123581086417
  23    -0.081748518373369
  24    -0.0037335357718718
  25    -0.0070152826152476
  26     0.015826942529443
  27    -0.010726413406617
  28    -0.012005245186683
  29    -0.019870405629615
  30     -0.03722367844206
  31    0.0025653884478169
  32    -0.009331445969164
  33    -0.0078009474136589
  34      0.43305523509729
  35      0.16012979351832
  36    -0.012755380309672
  37     0.026189097302755
  38      0.01494415287501
  39    -0.019403214652706
  40    -0.036531320591565
  41    0.0025869494328793
  42    -0.011622478279502
  43    -0.0041306662023937
  44    -0.00044807305232262
  45    0.0020460385889699
  46    -0.0018250519512596
  47    0.00032515078381383
  48    0.0004039306497374
  49     0.020964231103269
  50     0.037240335366171
  51    -0.00058596936184705
  52    0.00059313548720809
  53    0.00094037001183547
  54    -0.021286164572948
  55    -0.024472386856179
  56    -0.0014606460388947
  57    0.00085136554569436
  58    0.00024185100113341
 Sym= A
 Ene=               4
 Spin= Alpha
 Occup=    1.00000
   1    -0.0050891168469196
   2      0.18311964974657
   3      0.10620939285024
   4     -0.12360440964327
   5     -0.34721658531449
   6    0.0011269721124909
   7    -0.060650068636727
   8     -0.16318779056981
   9    0.0001791334027064
  10     -0.01188134845273
  11    -7.2728475105302e-05
  12    -0.00046857155999227
  13    -0.015430426017849
  14     0.013904475654821
  15     -0.00244607322069
  16    -0.020093038973472
  17    -0.013030519790589
  18     0.024274721080775
  19    -0.00043144583222983
  20    0.00084984175745234
  21     0.014282955741914
  22     0.010161300837362
  23     0.003684691262307
  24    -0.0038371109994958
  25    -0.00022744345225405
  26    -0.0019477166986039
  27    0.0031495010672068
  28     0.016657090640968
  29    -0.00044608793321143
  30    0.0020467119567696
  31    0.0018249378276493
  32    0.0004835620638534
  33    -0.00018734737077595
  34    -0.021287770783006
  35    -0.024473040745268
  36     0.001460655794347
  37    0.00085811800814333
  38    0.00021624874473282
  39     0.020963020322415
  40     0.037239743863711
  41    0.00058596899488208
  42    0.00098394674407012
  43    -0.00051778162301218
  44    -0.019870888912513
  45    -0.037223954911397
  46    -0.0025653633213796
  47     -0.01198170788305
  48     0.002090122386685
  49    -0.019401398517586
  50    -0.036530944116142
  51    -0.0025868428053654
  52    -0.012130775604316
  53    -0.0022341043458808
  54      0.43305508116013
  55      0.16012948554312
  56     0.012755411865286
  57     0.030152536408492
  58    0.00015258367491226
 Sym= A
 Ene=               5
 Spin= Alpha
 Occup=    1.00000
   1    -0.0024455964523603
   2    -0.020095930624013
   3     -0.01303252340276
   4     -0.02427756778135
   5    -0.00084573821844574
   6    0.00043199669801679
   7    -0.014284260278447
   8    -0.0036827969522122
   9    -0.010161023731737
  10    -0.00080868371236858
  11     0.016657064854501
  12    -0.0019476873310786
  13    0.0048976610298351
  14    -0.00022755190425347
  15    -0.0050886012826076
  16      0.18311798870884
  17      0.10620811052738
  18      0.12360785774642
  19    -0.0011258024547015
  20      0.34721647712665
  21     0.060651654002713
  22    -0.00017870084989075
  23      0.16318768299657
  24     0.019303992218536
  25     0.013904447539664
  26    -0.00046860589474565
  27    0.0025740510967057
  28    -7.2878945302272e-05
  29      0.43305524606525
  30      0.16012977238043
  31    -0.012755332368989
  32    -0.00015255292901472
  33    -0.030152527359956
  34    -0.019401671028731
  35    -0.036530578472496
  36    0.0025869496778994
  37    0.0022340638723087
  38     0.012130731728405
  39    -0.019869910082477
  40    -0.037223564018229
  41    0.0025654227357705
  42    -0.0020901611371952
  43     0.011981746536697
  44     0.020963830073265
  45     0.037240482274303
  46    -0.00058602767990743
  47    0.00051789722265969
  48    -0.00098391182850121
  49    -0.021286109934376
  50    -0.024471941203222
  51    -0.0014606884407163
  52    -0.00021616712429612
  53    -0.00085817931188043
  54    -0.00045007615495515
  55    0.0020454839280654
  56    -0.0018251617277789
  57    0.00018707090893725
  58    -0.00048354649404499
 Sym= A
 Ene=               6
 Spin= Alpha
 Occup=    1.00000
   1    -0.0050889401797576
   2      0.18311900397713
   3      0.10620885851729
   4     -0.12360623666488
   5       0.1745847946573
   6      0.30013435287313
   7    -0.060650905127427
   8     0.081749308924139
   9      0.14123490015125
  10     0.011156227196915
  11    -0.012005188250262
  12     0.015826841777277
  13    -0.0021298941699243
  14    -0.0070153208580776
  15    -0.0024458831134701
  16    -0.020094949544398
  17    -0.013031796232187
  18     0.024275929878016
  19    0.00095010285767561
  20    -5.0118621462352e-05
  21     0.014283503640247
  22    -0.0018903878488518
  23    -0.010641732672384
  24    -0.0030266933260277
  25    -0.014311669283138
  26    0.0024879992410822
  27    0.0036172640085785
  28    -0.0085256061449335
  29    -0.021287271952422
  30    -0.024472496904909
  31    0.0014606805635292
  32    -0.00024183251782868
  33    -0.00085123958111129
  34     0.020963179784018
  35     0.037240106841015
  36    0.00058600704074995
  37    -0.0009404566997566
  38    -0.0005932071205399
  39    -0.00044840204401376
  40     0.002045939239127
  41     0.001825057261814
  42    -0.00040388183502083
  43    -0.00032518105054817
  44    -0.019400371328725
  45     -0.03653029589442
  46    -0.002586856897011
  47    0.0041305837690872
  48     0.011622647595922
  49      0.43305515366292
  50      0.16012959444291
  51     0.012755371580198
  52    -0.014944105970794
  53    -0.026189168596825
  54     -0.01987118873659
  55    -0.037224132529161
  56    -0.0025654197768064
  57    0.0078009483093868
  58     0.009331384701825
 Sym= A
 Ene=               7
 Spin= Alpha
 Occup=    1.00000
   1    -0.0024457906659324
   2    -0.020095384379427
   3    -0.013032248437364
   4    -0.024278590790886
   5    0.00079712151340381
   6    0.00051875653849929
   7    -0.014284752127329
   8    -0.0069582217173384
   9    0.0082710169725458
  10    -0.0045407672581671
  11    -0.0081315964256242
  12    -0.00054026497190222
  13    0.0027428618357394
  14     0.014539184160571
  15    -0.0050889997044599
  16      0.18311779245707
  17      0.10620795294649
  18      0.12360851828238
  19      0.30126061224387
  20      -0.1726340186979
  21      0.06065197627932
  22      0.14141377502603
  23    -0.081439506266181
  24    -0.0044363801109326
  25    -0.0068892506297972
  26    -0.015358244166074
  27    -0.011132488176838
  28     0.012078013460791
  29    -0.019402363443932
  30    -0.036531012162221
  31    0.0025869906042684
  32     0.009388471249429
  33    -0.0080001070721175
  34     -0.01986892318185
  35    -0.037222992738266
  36    0.0025654073469014
  37     0.011421620779103
  38    -0.0041807308124905
  39      0.43305533291131
  40      0.16012990499898
  41    -0.012755311263271
  42    -0.026036596760666
  43     0.015208351416247
  44    -0.021287225478047
  45    -0.024472545548266
  46    -0.0014607494973596
  47    -0.00063507824651062
  48     0.000616303092559
  49    -0.00044759647983741
  50    0.0020465463668715
  51    -0.001825100672204
  52    -0.00051240283650611
  53    7.9649696656128e-05
  54     0.020964286990195
  55     0.037240556213746
  56    -0.00058603255352697
  57    -0.0011109799147189
  58    4.3517336788462e-05
 Sym= A
 Ene=               8
 Spin= Alpha
 Occup=    1.00000
   1    -0.0055108839811733
   2      0.19675273612129
   3      0.14780319959528
   4      0.36734369537378
   5    1.2059719940037e-06
   6    8.6869148023745e-07
   7      0.17046454381308
   8    5.0369687673931e-07
   9    4.0786460172031e-07
  10    -0.016008038260587
  11    -2.0679502046006e-09
  12    3.3486309717687e-08
  13     0.027726843426981
  14    4.1359350800449e-08
  15    -0.005511796196916
  16      0.19675638920252
  17      0.14780535578844
  18     -0.36734190791538
  19    1.8800145065018e-06
  20    6.5410962013268e-07
  21     -0.17046371092139
  22    8.5655546147592e-07
  23    2.6826586782927e-07
  24    -0.016007948313628
  25    -1.4395998302211e-08
  26    -8.7174799531348e-08
  27     0.027726644511917
  28    1.6838026188389e-08
  29    -0.022272908060299
  30    -0.037422925290916
  31    -0.0094666273950293
  32    -1.0751685662507e-06
  33    -0.0013846159866504
  34    -0.022275007157923
  35    -0.037423680416578
  36    -0.0094665526770661
  37    0.0011995808550783
  38    0.00069125918025693
  39    -0.022272327140735
  40    -0.037422677200606
  41    -0.0094666431546397
  42    -0.0011985476551003
  43    0.00069334143253034
  44    -0.022275935364544
  45    -0.037423599975547
  46    0.0094665367644347
  47    -0.00069309244198532
  48    0.0011982984675475
  49     -0.02227471231926
  50    -0.037423176822143
  51    0.0094665744086136
  52    -0.00069119173424985
  53    -0.0011994756746217
  54    -0.022276695101462
  55    -0.037423791104485
  56    0.0094665051376645
  57    0.0013842516139146
  58    1.155094224279e-06
 Sym= A
 Ene=               9
 Spin= Alpha
 Occup=    0.00000
   1     -0.16385032391567
   2     -0.21102455994416
   3       3.6125749992989
   4      0.32497300195322
   5    -0.0015278657953456
   6    -0.0029736506498516
   7       1.7679674834188
   8    -0.0072197292122168
   9    -0.007410872693835
  10    -0.085016899676235
  11    0.00089030489313068
  12    7.8553947611137e-05
  13       0.1482443506654
  14    0.00038291606304866
  15      0.27962208773951
  16      0.53645251346675
  17      -2.1054004458352
  18     -0.34939285100086
  19    4.7683080615629e-05
  20    6.2798405167673e-05
  21       3.6660930638613
  22     0.010752088582535
  23    0.0056288995393984
  24      0.13389291399504
  25    0.00085867469765966
  26    -0.0019448533808432
  27     -0.23007877520289
  28    0.0015880142771765
  29      -0.1682379911679
  30     -0.50079931469346
  31     -0.29885287377957
  32    -0.0013021547100433
  33      0.18399942692047
  34     -0.16244405269122
  35     -0.49237969875155
  36     -0.29925941100874
  37     -0.15780147916533
  38    -0.091259060879348
  39     -0.16919653055954
  40     -0.50155799058691
  41      -0.2985040226673
  42      0.15920093094875
  43    -0.092724759721853
  44     -0.15186994858419
  45      0.12411319300155
  46    0.0089807091086586
  47    0.0016322270288552
  48     0.004106707729984
  49     -0.14359059067168
  50      0.12928937136209
  51    0.0099835518637015
  52    -0.0039177491534173
  53    -0.0038899499032717
  54     -0.15216763279998
  55      0.12243881685943
  56    0.0093142931795436
  57    0.0028999920505749
  58    -0.00035856131984749
 Sym= A
 Ene=              10
 Spin= Alpha
 Occup=    0.00000
   1    -0.052613315736118
   2    -0.056862265127544
   3        1.105340245995
   4      0.12965822576761
   5      0.02485015139132
   6    0.0085243223956966
   7      0.43463199361606
   8     -0.78828591230571
   9     -0.23377082123608
  10    0.0022134813192276
  11     -0.04691022335309
  12     0.016867385102797
  13     0.042887823148616
  14       -0.101015801512
  15       0.4069105005049
  16      0.71931199061752
  17      -3.3793410635232
  18     -0.16592060662061
  19     0.061382662954579
  20     0.045347530313149
  21     0.080491055476483
  22       2.4436460829163
  23       1.0984840414857
  24      0.10130589658961
  25      0.13273313087665
  26     -0.31883876109203
  27      0.13200185733546
  28      0.26785107068856
  29      0.12378750324882
  30     -0.15983928886585
  31     0.026598886305535
  32     -0.27090486754086
  33    -0.038180667740709
  34       1.6569907635901
  35       1.8503786625538
  36     -0.25140598282135
  37      0.38630789686481
  38      0.25970044037388
  39    -0.018552390576284
  40     -0.41237776518582
  41     0.047877987083768
  42     -0.12093974693328
  43     -0.20755075623953
  44     -0.03473370077138
  45      0.10617495404014
  46     0.012525180947762
  47     0.058550307262826
  48     0.032510275560481
  49    -0.046820453486964
  50     0.073710188538944
  51    -0.074469594009519
  52     0.053341114604242
  53    0.0098029090979534
  54    -0.087389892594354
  55     -0.30457764442339
  56     0.057454389973597
  57     0.024628752701624
  58     0.032505596165079
 Sym= A
 Ene=              11
 Spin= Alpha
 Occup=    0.00000
   1      0.39232998938058
   2      0.69157990633729
   3      -3.2806733747803
   4      0.16065825713339
   5    -0.039318874785244
   6     0.063292135916048
   7      -0.1152204636262
   8      -1.3743629093981
   9       2.3421143273388
  10     -0.19073927584885
  11     -0.26911156337707
  12      0.30913597820607
  13    -0.042695432970894
  14      0.14562764440612
  15     -0.05819484304503
  16     -0.06681364506826
  17       1.1479321717831
  18     -0.12533013270828
  19    -0.013747426521001
  20      0.02434384942838
  21      -0.4336786144414
  22      0.49281809640398
  23     -0.61397034887583
  24      0.01128938768466
  25       0.1041494243804
  26     0.010980852015015
  27     0.047558317537493
  28    -0.057394124918316
  29    -0.070986785668744
  30     0.068119284657815
  31      0.08229751171819
  32    -0.033382205317023
  33     0.045526837561383
  34    -0.043010600531376
  35     0.084536785424718
  36    -0.019874304899879
  37    -0.030471948165218
  38     0.054742452360772
  39    -0.082411636234978
  40     -0.28988067966873
  41    -0.055522376378197
  42    -0.0032966512590842
  43     0.043275032126903
  44       1.6576455800234
  45       1.8599819075068
  46      0.25775971065655
  47     -0.23263866520912
  48      0.40061780774723
  49     0.017879820063155
  50     -0.31185476572632
  51     -0.04030833814808
  52      0.22022001810804
  53     -0.13942494228341
  54     0.024799624422647
  55     -0.33548253714029
  56    -0.038356330675102
  57    0.0080316571582062
  58     -0.26037818179396
 Sym= A
 Ene=              12
 Spin= Alpha
 Occup=    0.00000
   1      0.39619578136783
   2      0.69857332910309
   3       -3.311148724082
   4      0.16220979597118
   5     0.074664080626619
   6    -0.0046952932060585
   7     -0.11656289787001
   8        2.698970926791
   9       0.1709974898153
  10       0.2816652243035
  11    -0.0077818625856644
  12     0.016322232402971
  13      0.23081106315412
  14     -0.30426917372381
  15    -0.058720715884914
  16    -0.067382269138906
  17       1.1592792978378
  18     -0.12658421495745
  19     0.027760730005499
  20    0.0018953317290851
  21     -0.43689510284389
  22     -0.76892251639273
  23     -0.16542270486891
  24    -0.022408637484328
  25    0.0043878846685524
  26     -0.03544365962299
  27     0.028331952243052
  28      0.11828188026275
  29    -0.042674700585414
  30     0.096730546314818
  31    -0.015596601022633
  32     0.062814123092228
  33     0.001351601540862
  34    -0.082440178567104
  35     -0.29137207536113
  36    -0.058400034776226
  37     0.038249410723747
  38    -0.015341652656675
  39    -0.073510014169429
  40     0.055192001957632
  41     0.080840176098484
  42     0.057164310998005
  43    0.0097184599068289
  44      0.06674676657075
  45     -0.22920427456883
  46    -0.032916310211125
  47     -0.24343817792387
  48     -0.11370238249653
  49    -0.0096483970515929
  50     -0.39967513895628
  51    -0.043759709356534
  52     -0.21627495440377
  53      0.12510689609959
  54       1.6576142813092
  55       1.8538311123305
  56      0.25757503421939
  57       0.4629606384512
  58    -0.019796082801787
 Sym= A
 Ene=              13
 Spin= Alpha
 Occup=    0.00000
   1     -0.28534024330877
   2     -0.54342453758746
   3       2.1794405557608
   4     -0.35287380509078
   5    0.0039154388731676
   6    0.0071471363712584
   7       3.6680427317969
   8     0.045691379541154
   9     0.083635264092264
  10     -0.12742238780002
  11    -0.0099080599948719
  12     0.012879820940557
  13      0.23240080460886
  14     -0.00603762380308
  15      0.16513744405422
  16      0.21087172987653
  17      -3.6476166941732
  18      0.32800423967244
  19    2.0382735762822e-05
  20    0.00083518782020419
  21       1.7766781362418
  22    -0.010714055067169
  23    -0.025778076732623
  24      0.08758515059983
  25    0.0031690506936028
  26    0.0016993398505746
  27     -0.14784861942091
  28    0.0013845971822835
  29      0.15440706660412
  30     -0.11450999241375
  31     0.011230902359492
  32    -0.0010254966003387
  33    0.0034458769198298
  34      0.15343778663766
  35     -0.12720992049966
  36    0.0062685755650989
  37    -0.0012151898326969
  38    -0.00077360984517023
  39      0.15475288163395
  40     -0.12704947427671
  41    0.0091092493261877
  42     0.003666931503056
  43    0.0025125553988749
  44      0.17327270571099
  45      0.51530917617269
  46     -0.29625634731128
  47     -0.10051494083681
  48      0.15541725532871
  49      0.10792578963684
  50      0.43922885116357
  51      -0.3084228592423
  52    -0.083177174631751
  53     -0.14340304708724
  54      0.17216917594832
  55      0.51254135457338
  56     -0.29679072806504
  57      0.18425468843372
  58    -0.0096375793248469
 Sym= A
 Ene=              14
 Spin= Alpha
 Occup=    0.00000
   1     0.062369865789705
   2     0.073848871356127
   3        -1.19358061009
   4     -0.12773513638597
   5     0.022704434236544
   6    -0.016206534765676
   7     -0.44111447136729
   8     -0.56410177745316
   9      0.55844889484935
  10     0.043661097121425
  11     0.064744198886549
  12    -0.012854426235773
  13    -0.015034660703041
  14    -0.095116687728198
  15      -0.4088034631598
  16     -0.72171772949047
  17       3.4107002196467
  18      0.16463197371173
  19     0.071045569071471
  20    -0.031694851668909
  21     -0.10320661968781
  22       2.1633725662574
  23      -1.5667961960353
  24     -0.14510215950287
  25     -0.16655275372604
  26     -0.29411262956146
  27     -0.15648722841998
  28      0.24952406942772
  29     0.019845419355726
  30      0.41423688385455
  31    -0.047692742462444
  32      -0.2391049762944
  33    -0.00066376138783945
  34      -0.1258457976154
  35       0.1576966211776
  36    -0.025538400923965
  37     -0.16733010948309
  38      0.21423192158598
  39      -1.6603454702737
  40      -1.8468600714712
  41      0.25489872875257
  42      0.41856252453941
  43     -0.20553955174766
  44     0.091786971751876
  45      0.30207112376407
  46    -0.057967920292962
  47     0.037229878377843
  48    -0.0055128566456848
  49     0.043780786250072
  50     -0.10309172455108
  51    -0.012224868512596
  52     0.053308330748217
  53    -0.034265339827844
  54     0.075071499380996
  55    -0.047076276914625
  56     0.078135244428209
  57     0.043297251124205
  58    -0.040519329797043
 Sym= A
 Ene=              15
 Spin= Alpha
 Occup=    0.00000
   1     0.062651509229837
   2     0.074774660047227
   3       -1.192394462689
   4     -0.12822148787483
   5      0.00509354542333
   6     0.029979498096179
   7     -0.43965239957514
   8     -0.21559192698886
   9      -0.7747076399151
  10     0.012243828086813
  11     -0.11422149586516
  12     0.032215253399756
  13    -0.033939860326282
  14    -0.0074288518607067
  15     -0.40832798309761
  16     -0.72082921151709
  17       3.4075569018442
  18      0.16440572043269
  19    -0.0081673511214529
  20     0.076878641957382
  21      -0.1008454748385
  22      0.27860473700034
  23       2.6582452624952
  24      0.33662074296488
  25      0.29877295675104
  26    -0.030833141281193
  27      0.12268457528835
  28     0.018476091465961
  29      -1.6585450607002
  30      -1.8483016501801
  31      0.25388347405147
  32    -0.031182178322968