[Molden Format]
made by pyscf v[2.0.1]
[Atoms] (AU)
C   1   6     0.00000000000000     0.00000000000000     0.00000000000000
C   2   6     2.88195139270757     0.00000000000000     0.00000000000000
H   3   1     3.63065534584939     0.00000000000000     1.92469232395612
H   4   1     3.63065534584939    -1.66683244701491    -0.96234616197806
H   5   1     3.63065534584939     1.66683244701491    -0.96234616197806
H   6   1    -0.74870395314182    -1.23716837829778    -1.47439985948033
H   7   1    -0.74870395314182     1.89545192279507    -0.33421931462451
H   8   1    -0.74870395314182    -0.65828354449729     1.80861917410484
[GTO]
1 0
 s    8 1.00
                  6665  0.00069158396281299
                  1000  0.0053257961529341
                   228   0.027060721042034
                 64.71    0.10165684614077
                 21.06     0.2745748236174
                 7.495    0.44829431892377
                 2.797    0.28490261071525
                0.5215   0.015194859206082
 s    8 1.00
                  6665  -0.00029326965268655
                  1000  -0.0023180354739745
                   228  -0.011499786038565
                 64.71  -0.046826727009787
                 21.06   -0.12846616875047
                 7.495   -0.30126627246289
                 2.797   -0.25563070233011
                0.5215      1.093793361012
 s    1 1.00
                0.1596                   1
 p    3 1.00
                 9.439   0.056979251590039
                 2.002    0.31320721150073
                0.5456    0.76037674173753
 p    1 1.00
                0.1517                   1
 d    1 1.00
                  0.55                   1

2 0
 s    8 1.00
                  6665  0.00069158396281299
                  1000  0.0053257961529341
                   228   0.027060721042034
                 64.71    0.10165684614077
                 21.06     0.2745748236174
                 7.495    0.44829431892377
                 2.797    0.28490261071525
                0.5215   0.015194859206082
 s    8 1.00
                  6665  -0.00029326965268655
                  1000  -0.0023180354739745
                   228  -0.011499786038565
                 64.71  -0.046826727009787
                 21.06   -0.12846616875047
                 7.495   -0.30126627246289
                 2.797   -0.25563070233011
                0.5215      1.093793361012
 s    1 1.00
                0.1596                   1
 p    3 1.00
                 9.439   0.056979251590039
                 2.002    0.31320721150073
                0.5456    0.76037674173753
 p    1 1.00
                0.1517                   1
 d    1 1.00
                  0.55                   1

3 0
 s    3 1.00
                 13.01   0.033498726389998
                 1.962    0.23480080117413
                0.4446     0.8136829578829
 s    1 1.00
                 0.122                   1
 p    1 1.00
                 0.727                   1

4 0
 s    3 1.00
                 13.01   0.033498726389998
                 1.962    0.23480080117413
                0.4446     0.8136829578829
 s    1 1.00
                 0.122                   1
 p    1 1.00
                 0.727                   1

5 0
 s    3 1.00
                 13.01   0.033498726389998
                 1.962    0.23480080117413
                0.4446     0.8136829578829
 s    1 1.00
                 0.122                   1
 p    1 1.00
                 0.727                   1

6 0
 s    3 1.00
                 13.01   0.033498726389998
                 1.962    0.23480080117413
                0.4446     0.8136829578829
 s    1 1.00
                 0.122                   1
 p    1 1.00
                 0.727                   1

7 0
 s    3 1.00
                 13.01   0.033498726389998
                 1.962    0.23480080117413
                0.4446     0.8136829578829
 s    1 1.00
                 0.122                   1
 p    1 1.00
                 0.727                   1

8 0
 s    3 1.00
                 13.01   0.033498726389998
                 1.962    0.23480080117413
                0.4446     0.8136829578829
 s    1 1.00
                 0.122                   1
 p    1 1.00
                 0.727                   1

[5d]
[7f]
[9g]

[MO]
 Sym= A
 Ene=               0
 Spin= Alpha
 Occup=    1.00000
   1       1.0026308455237
   2    -0.00039788566296103
   3    -0.012753253661077
   4    0.00097221002442355
   5    -7.8645870432536e-08
   6    1.6707527762698e-07
   7    -0.0001645533325712
   8    -3.8765271392308e-08
   9    7.9759132382571e-08
  10    8.9525474146985e-05
  11    -8.2160113600112e-09
  12    -5.8594600777664e-09
  13    -0.0001550471376648
  14    5.1541840138826e-09
  15    -2.391077430886e-05
  16    -0.00046142542435459
  17    0.0019552934609647
  18    0.0011454245051485
  19    4.2278759176535e-08
  20    -3.2824856630795e-08
  21    -0.0005822973319729
  22    2.1355448388273e-08
  23    -2.2019698712561e-08
  24    0.00025739127069924
  25    -9.2358907022168e-09
  26    -3.200544063229e-09
  27    -0.00044581834671669
  28    5.5106250683969e-09
  29    1.8848419380575e-05
  30    0.00017162257924002
  31    -2.7627640709667e-05
  32    4.9247894967985e-06
  33    -1.0664898915206e-05
  34    1.8871473863816e-05
  35    0.00017164327352763
  36    -2.762774840524e-05
  37    6.7753833963911e-06
  38    9.5947675031924e-06
  39    1.8945346159306e-05
  40    0.00017168663002873
  41    -2.7630391413587e-05
  42    -1.1700270248323e-05
  43    1.0698353320396e-06
  44    -0.0029102057712764
  45    0.00074181593020733
  46    -0.00021511187990577
  47    -0.00050872780721229
  48    -0.00060698562469115
  49    -0.0029102337691848
  50    0.00074180067571232
  51    -0.00021511261699094
  52    0.00078003178072931
  53    -0.00013706874208689
  54    -0.0029099752238672
  55    0.00074191949357777
  56    -0.00021510405393889
  57    -0.00027130280980299
  58    0.00074405166180594
 Sym= A
 Ene=               1
 Spin= Alpha
 Occup=    1.00000
   1    -2.3907630093069e-05
   2    -0.00046162292433244
   3    0.0019551599118868
   4    -0.0011455745545747
   5    2.6701163869639e-08
   6    8.0872071287116e-08
   7    0.00058222849817773
   8    1.0792889932464e-08
   9    4.5129198617182e-08
  10    0.00025739981440022
  11    -1.270276167289e-08
  12    -5.2890317100475e-09
  13    -0.00044582886488693
  14    -8.729874043394e-10
  15       1.0026308487269
  16    -0.00039795076658379
  17    -0.012753309140892
  18    -0.00097199527644642
  19    5.8222519385749e-09
  20    -1.9886819948073e-07
  21    0.00016465204002354
  22    1.2910134929271e-09
  23    -9.6527155257611e-08
  24    8.952025389879e-05
  25    -1.1776936124197e-08
  26    -8.3824271252032e-10
  27    -0.00015507473907662
  28    -1.0337677758155e-09
  29    -0.0029102797672709
  30    0.00074178590169202
  31    0.00021511962434072
  32    4.6019233748123e-07
  33    0.00079198478400435
  34    -0.0029100152201418
  35    0.00074191066144196
  36    0.00021511099582871
  37    -0.00068609564945751
  38    -0.00039559265135247
  39    -0.002910008845999
  40    0.00074191096629696
  41    0.00021511049506094
  42    0.00068563527935221
  43    -0.00039638913414201
  44    1.8760247270045e-05
  45    0.00017161342301717
  46    2.761935301869e-05
  47    1.0619613165348e-05
  48    4.9982968493323e-06
  49    1.8848098396861e-05
  50    0.00017166116899306
  51    2.7622569738512e-05
  52    -9.641173749999e-06
  53    6.7021409191122e-06
  54    1.8910837364939e-05
  55    0.00017170236228347
  56    2.7623940276719e-05
  57    -9.7871590291485e-07
  58    -1.1700705556456e-05
 Sym= A
 Ene=               2
 Spin= Alpha
 Occup=    1.00000
   1    -0.0051266101677599
   2      0.18298973596889
   3      0.10651710656431
   4     -0.12362365327635
   5       0.3422608572943
   6    -0.059349569921355
   7    -0.060451445019706
   8      0.16156818762841
   9    -0.028336002084583
  10    -0.010869650579493
  11    0.0023352651116926
  12    -0.0057046903450093
  13     -0.01490976752704
  14    -0.013613247650636
  15    -0.0024286100312922
  16    -0.020146280969879
  17    -0.013305751507882
  18     0.024350549327246
  19    0.00010752586408953
  20    0.00072478814695217
  21     0.014618268647084
  22    -0.011518595775027
  23    0.0053219833919965
  24    -0.0034639621647735
  25      0.00268092895096
  26    0.0013230776870352
  27    0.0033853374876468
  28    -0.016341124886442
  29    0.0038734191829402
  30    0.0082624433983508
  31    0.0016627199173835
  32    -0.00039408153503114
  33    3.8655484019599e-05
  34     0.018578973496092
  35     0.032722038496239
  36    0.00077925628507393
  37    -0.00084600964868721
  38    -0.00040155177118563
  39     -0.02303067317406
  40     -0.02645525118102
  41    0.0012887134227486
  42    -0.00080154625627644
  43    0.00029059515958004
  44    -0.019855946944679
  45    -0.037025967777742
  46    -0.0025661830549627
  47     0.012159851800254
  48    -4.9660168335435e-05
  49      0.43303662059814
  50       0.1600168438221
  51     0.012703710023015
  52    -0.029723532455396
  53    0.0053759411095957
  54    -0.019438017115703
  55     -0.03641790869869
  56    -0.0025843053012953
  57     0.011550654077996
  58    -0.0042586224603869
 Sym= A
 Ene=               3
 Spin= Alpha
 Occup=    1.00000
   1    -0.0024286829498348
   2    -0.020146190129497
   3    -0.013305574578938
   4    -0.024348768431692
   5    0.00073309782019133
   6    -2.0155086069975e-05
   7    -0.014617434392138
   8    0.0032411251535396
   9    -0.012267869528605
  10    -0.0016600624431591
  11     0.016558402445246
  12    0.0016903621080675
  13    0.0044269931171043
  14    0.00019755288145363
  15    -0.0051265110397653
  16      0.18299071201572
  17      0.10651780294251
  18      0.12362230458962
  19    0.00098866314907512
  20      0.34736692240989
  21     0.060450810626442
  22    0.0001521882084532
  23      0.16403403472771
  24     0.019155735534138
  25     0.013811947742459
  26    0.00040845303517625
  27    0.0024255098471418
  28    6.4240748893092e-05
  29      0.43303652965063
  30      0.16001666297814
  31    -0.012703746850206
  32    0.00013294308727472
  33    -0.030205498891895
  34    -0.019858518771234
  35    -0.037027195226718
  36    0.0025662292653963
  37    0.0020625636769273
  38     0.011983630949452
  39     -0.01943524235104
  40    -0.036416891526615
  41    0.0025841694984423
  42    -0.0021882868762032
  43     0.012114798784133
  44     0.018578350382287
  45     0.032721893546234
  46    -0.00077924104123848
  47    -0.00054238869349007
  48    -0.00076348742919409
  49     0.003873216220335
  50    0.0082621055566864
  51    -0.0016626773050385
  52    -3.0355710640328e-05
  53    -0.00039480982938647
  54    -0.023031451807171
  55    -0.026455473764834
  56    -0.0012886938971151
  57    0.00014698311780995
  58    -0.00083975958748195
 Sym= A
 Ene=               4
 Spin= Alpha
 Occup=    1.00000
   1    -0.0051266284751488
   2      0.18298925138129
   3      0.10651658633176
   4     -0.12362683221577
   5     -0.22252750335004
   6     -0.26673171681592
   7    -0.060452910156741
   8     -0.10532319217806
   9     -0.12575412085394
  10    0.0067644752509197
  11     0.010621812178675
  12     0.017460675202045
  13    -0.0047290608564778
  14    0.0088289148502658
  15    -0.0024283642595733
  16    -0.020149213862768
  17    -0.013307719315887
  18     0.024352531277218
  19    0.00057261964539703
  20    -0.00045488989410663
  21     0.014619181546989
  22     0.010367613476662
  23    0.0073147050016608
  24    -0.00077343323011619
  25     0.012811384704429
  26    0.00047060939757877
  27    0.0049385235280853
  28     0.010492208073267
  29     0.018578704222722
  30     0.032722348849582
  31    0.00077933596659845
  32    7.5208824246994e-05
  33    0.00093353777093839
  34    -0.023030688118725
  35    -0.026454742641398
  36    0.0012887841784653
  37    0.00065233753786342
  38    0.00054884768584216
  39    0.0038713021557507
  40     0.008261903495833
  41    0.0016628579753619
  42    0.00023067412144878
  43    0.00032186221963294
  44      0.43303667263209
  45      0.16001689241679
  46     0.012703637048383
  47     0.019517506073084
  48     0.023053366339218
  49    -0.019436156931501
  50    -0.036416967089761
  51    -0.0025843226831332
  52    -0.0094635049323305
  53    -0.0078738212535598
  54    -0.019855505780752
  55    -0.037025811070636
  56    -0.0025662450249046
  57    -0.0061228821287278
  58    -0.010505947257121
 Sym= A
 Ene=               5
 Spin= Alpha
 Occup=    1.00000
   1    -0.0024288391735367
   2    -0.020146792921158
   3    -0.013306059532902
   4    -0.024350433027366
   5    -0.00038573052786497
   6    -0.0006266209747928
   7    -0.014618220162747
   8    -0.012245659460536
   9    0.0033261459001784
  10    -0.0014000444927254
  11    -0.0084501670649621
  12    -0.0015169495445923
  13    0.0045769725935188
  14      0.01424129189638
  15    -0.0051270910911998
  16      0.18299039953356
  17      0.10651749540848
  18       0.1236241119603
  19      0.30033429619863
  20       -0.174538673249
  21     0.060451661592185
  22      0.14198164536392
  23      -0.0821482966549
  24    -0.0036634160058788
  25    -0.0069614809100912
  26    -0.015621303163369
  27    -0.010749295594355
  28     0.011929460721021
  29    -0.019857083849718
  30    -0.037026396843167
  31    0.0025662285861815
  32    0.0093468496947218
  33    -0.007778120388744
  34    -0.019435437823231
  35    -0.036417097022014
  36    0.0025842178108115
  37     0.011585869755314
  38    -0.0041622539969382
  39      0.43303660740009
  40      0.16001675943034
  41    -0.012703698291518
  42    -0.026225199387986
  43     0.014987651342159
  44    0.0038756965609726
  45    0.0082633290126108
  46    -0.0016626401520364
  47    -0.00032666468098346
  48    0.0002237869025062
  49     -0.02303240182718
  50    -0.026455796217508
  51    -0.0012887735906328
  52    -0.00080071138408015
  53    0.00029251529003189
  54     0.018577569988999
  55     0.032721579629888
  56    -0.00077931112533571
  57    -0.00039008221907834
  58    0.00085147244770024
 Sym= A
 Ene=               6
 Spin= Alpha
 Occup=    1.00000
   1    -0.0051271787693313
   2      0.18299028547728
   3      0.10651732294395
   4     -0.12362566531121
   5     -0.11973153547946
   6       0.3260804244501
   7    -0.060452393187017
   8    -0.056244096509698
   9      0.15408973417335
  10     0.015321437241862
  11    -0.012957055620078
  12    -0.011755989040476
  13    0.00021147348595859
  14    0.0047842017180638
  15    -0.0024287020275479
  16    -0.020147377388898
  17    -0.013306512691375
  18     0.024351756018546
  19    -0.00068137254177405
  20    -0.00027016962317539
  21     0.014618845779274
  22    0.0011503462679855
  23    -0.012636771810195
  24    -0.0027581605707403
  25     -0.01549228407041
  26    -0.0017936150539549
  27     0.003792755408402
  28     0.005848780850679
  29    -0.023031523269567
  30      -0.0264553885122
  31    0.0012887843875557
  32    0.00014911112101239
  33    -0.00083938632334285
  34    0.0038736212841244
  35     0.008262717783708
  36    0.0016627515034987
  37    0.0001635643321285
  38    -0.00036064068153834
  39     0.018579208098585
  40     0.032722236488443
  41    0.00077928689929028
  42    0.00077075157150287
  43    -0.00053191183955821
  44    -0.019436862847377
  45    -0.036417553404191
  46    -0.0025843111491994
  47    -0.0020871542163052
  48     0.012132533179551
  49    -0.019854326621841
  50    -0.037025369986042
  51    -0.0025661720029392
  52    -0.0060370515685943
  53     0.010555569171737
  54      0.43303663167638
  55      0.16001680875738
  56     0.012703663414515
  57     0.010206088837009
  58    -0.028429343228035
 Sym= A
 Ene=               7
 Spin= Alpha
 Occup=    1.00000
   1    -0.0024286701779856
   2    -0.020148074026509
   3    -0.013306891295066
   4    -0.024350883406521
   5    -0.00034919748202407
   6    0.0006453364447808
   7    -0.014618426928281
   8    0.0090036481998662
   9    0.0089409861366371
  10    -0.0039355859244247
  11    -0.0081081089063447
  12    -0.00017329789749337
  13    0.0031130400803594
  14    -0.014438726928501
  15    -0.0051270619525061
  16      0.18299057416199
  17      0.10651752410548
  18      0.12362527401865
  19     -0.30132202422484
  20     -0.17282679321639
  21     0.060452196724014
  22     -0.14213331653812
  23    -0.081885014469888
  24    -0.0042760709828641
  25    -0.0068503395347078
  26      0.01521280486208
  27    -0.011103149609838
  28    -0.011993577540815
  29    -0.019433969209906
  30    -0.036416365532241
  31    0.0025841979288552
  32    -0.0093975518046415
  33    -0.0079526118186601
  34      0.43303656639607
  35      0.16001668151223
  36     -0.01270367516418
  37     0.026092290567134
  38     0.015217898501723
  39    -0.019857135258833
  40    -0.037026573916164
  41    0.0025662549824121
  42     -0.01140948618182
  43    -0.0042055097198634
  44    -0.023031815595759
  45    -0.026455287406989
  46    -0.0012887748288776
  47    0.00065371143267444
  48    0.00054712852814626
  49     0.018577915070419
  50     0.032721929808949
  51    -0.00077932166089275
  52    0.00093245212590782
  53    -8.7978498614284e-05
  54    0.0038733145548495
  55    0.0082624304375635
  56    -0.0016627389717061
  57    0.00035708121395758
  58    0.00017115004579649
 Sym= A
 Ene=               8
 Spin= Alpha
 Occup=    1.00000
   1    -0.0054992208936056
   2      0.19692067859718
   3      0.14777341855083
   4      0.36719590003874
   5    -2.0951667927742e-06
   6    -9.0752305472545e-07
   7      0.17042119870035
   8    -9.7963498369405e-07
   9    -3.576499511993e-07
  10    -0.016043693037802
  11    -4.8384601173795e-08
  12    8.506571464139e-08
  13     0.027788620381776
  14    4.7711906475024e-08
  15    -0.0054986347326225
  16       0.1969182510054
  17      0.14777197845253
  18     -0.36719708759625
  19    -7.2402634886268e-07
  20    -1.7874478924617e-06
  21     -0.17042174602837
  22    -2.5886001288642e-07
  23    -8.3030243906743e-07
  24    -0.016043891113925
  25    -2.6602459368763e-08
  26    3.2308200761342e-08
  27     0.027788673779278
  28    7.0307041989863e-08
  29    -0.022199014981296
  30    -0.037368490464365
  31    -0.0094807067916239
  32    6.9444262742152e-07
  33    -0.0014043834777955
  34    -0.022196369196548
  35    -0.037367572913782
  36    -0.0094807984779291
  37    0.0012160236849524
  38    0.00070285643427559
  39    -0.022197202639407
  40     -0.03736770159767
  41    -0.009480762127791
  42    -0.0012166945514813
  43    0.00070156620472379
  44    -0.022194314003329
  45    -0.037367049349904
  46     0.009480858672885
  47    0.0009034750642711
  48    0.0010756532680737
  49    -0.022197582025744
  50    -0.037368299797608
  51    0.0094807477390853
  52    -0.0013831076560465
  53    0.0002445684510657
  54    -0.022195973504497
  55    -0.037367555796941
  56    0.0094807962388312
  57    0.00047967576048493
  58    -0.0013201964992665
 Sym= A
 Ene=               9
 Spin= Alpha
 Occup=    0.00000
   1     -0.16406285800297
   2     -0.21031027416659
   3       3.6235331081264
   4      0.32343319985033
   5    -0.00020866252995958
   6    0.00026986877019114
   7        1.766693824944
   8    -0.0002098981611611
   9    0.00077711870610491
  10    -0.083485120208806
  11    -0.0001224953875911
  12    -0.001123064317652
  13      0.14864444353768
  14    0.00018536005529539
  15      0.27660819090693
  16      0.52991991871146
  17      -2.0899498160293
  18     -0.34805000114696
  19    0.00012010957915186
  20    -5.4930493798781e-05
  21       3.6692015676578
  22    -0.00015727089951532
  23    -0.00049572403388744
  24       0.1332780172778
  25    0.00018592547601983
  26    -0.00066481152584225
  27     -0.23246181079539
  28    3.334684637536e-05
  29     -0.16722842287561
  30     -0.50260145747302
  31     -0.29828352993931
  32    0.00037728436125099
  33      0.18366539729824
  34     -0.16756319811321
  35     -0.50295394544417
  36     -0.29813868985543
  37     -0.15905222733512
  38    -0.091938101199123
  39     -0.16795648846825
  40     -0.50268771942999
  41     -0.29796421663983
  42      0.15916763010018
  43    -0.092153235364564
  44     -0.15246906184387
  45      0.12405789595427
  46     0.009272386810379
  47    -0.00052063817851015
  48    0.0025286429953401
  49      -0.1520724810501
  50      0.12397218286082
  51    0.0093915005050571
  52    -0.0019746941151108
  53    -0.00082349581969636
  54     -0.15394836543761
  55      0.12365600439287
  56     0.008723760982345
  57    0.0016980721493612
  58    -0.00049483047349043
 Sym= A
 Ene=              10
 Spin= Alpha
 Occup=    0.00000
   1     0.061210028972436
   2     0.071039812037292
   3      -1.1911414618478
   4     -0.12817868854705
   5    -0.002553006999448
   6      0.02760203816405
   7     -0.43682525942832
   8      0.16821230320254
   9     -0.84209622230123
  10     0.024275469917187
  11     -0.11567667988794
  12     -0.02761333499311
  13    -0.023192407061737
  14    0.0049956170998495
  15     -0.40739538163485
  16     -0.71831471892737
  17       3.4053221709551
  18      0.16653546116057
  19    0.0050257567073577
  20     0.080148892485886
  21    -0.099314956916953
  22     -0.19213061659905
  23       2.6920322127312
  24      0.34157181958039
  25      0.29680107470989
  26      0.02109635946986
  27      0.12332612402569
  28    -0.010788058248785
  29      -1.6686570818751
  30      -1.8709259454153
  31      0.25621723767729
  32     0.021185756236076
  33      0.46817585785954
  34    -0.098855757461694
  35      0.20646132470779
  36    -0.030148174795375
  37      0.10580844472214
  38     -0.24632527223634
  39    -0.0029063951891359
  40      0.38830292884208
  41    -0.044517947770227
  42     -0.11851787858792
  43     -0.21555627382958
  44     0.069321789816521
  45    -0.071650756216551
  46     0.064918827279898
  47    -0.012335418869419
  48     0.059478143610698
  49     0.042609655004352
  50     -0.12917103400153
  51    0.00046828984791141
  52    0.0023093768231107
  53     0.063036984102521
  54     0.099332862976162
  55      0.36039738869041
  56    -0.052305298531738
  57      0.01139966783175
  58      0.02925905804355
 Sym= A
 Ene=              11
 Spin= Alpha
 Occup=    0.00000
   1     -0.40739059973375
   2     -0.71830526059992
   3       3.4052574998452
   4     -0.16656901687133
   5    -0.032151191681879
   6     0.073603192304362
   7      0.09937103289808
   8      -0.7398482566478
   9       2.5954920690854
  10      0.25738040283341
  11     -0.28263167240035
  12     -0.24593912779845
  13     0.074733078471664
  14     0.091337614786483
  15     0.061194942919513
  16     0.071007560553761
  17      -1.1911188764234
  18      0.12818727421945
  19    -0.0070312250265637
  20     0.026810135687729
  21      0.43679401767441
  22       0.1298498209342
  23     -0.84888024108947
  24     0.037745986494361
  25      0.11039203046165
  26     0.015078592038354
  27    -0.015418438657203
  28    -0.034850299751992
  29     0.099338894632126
  30      0.36040834159923
  31      0.05231973444369
  32    -0.020710346710567
  33     0.023587758715918
  34     0.042609758703882
  35     -0.12920497110813
  36    -0.00047353749681053
  37    -0.023724236508104
  38     0.058453682540115
  39     0.069307075866501
  40    -0.071628183880376
  41    -0.064904332475711
  42    -0.0087389451296238
  43     0.060117335607124
  44    -0.0027999781040355
  45       0.3884771160575
  46     0.044522759808984
  47      0.18509793218051
  48     -0.16198472040353
  49    -0.098953397807999
  50      0.20630892953212
  51     0.030122097018434
  52    -0.015165532989802
  53     -0.26768858089817
  54       -1.668653005719
  55      -1.8708985701274
  56      -0.2562195206672
  57     -0.18008189478423
  58      0.43268062631296
 Sym= A
 Ene=              12
 Spin= Alpha
 Occup=    0.00000
   1     -0.40746478468334
   2     -0.71843192979005
   3       3.4055166306296
   4     -0.16669885723025
   5      0.07948814034276
   6    -0.0083838101692775
   7     0.099780411341086
   8       2.6167841032955
   9     -0.65587440716907
  10     -0.26158653388929
  11     0.061905409372321
  12     -0.10440982495456
  13     -0.22374881379481
  14     -0.29025172754409
  15     0.061140571050125
  16     0.070875638398863
  17      -1.1917454212749
  18      0.12839333926266
  19     0.026755531822532
  20    -0.0076331017883301
  21       0.4370260054063
  22      -0.7997025809674
  23      0.31109951056841
  24     0.014903299618175
  25    -0.025238698719013
  26    -0.029391407432462
  27    -0.028490665599614
  28      0.11311996583816
  29      0.04369468333382
  30      -0.1289330314656
  31    -0.0008065199877728
  32     0.062494994295128
  33    -0.0090973674611394
  34     0.069039929437711
  35    -0.071642949456986
  36    -0.064825836621771
  37     0.056488082841942
  38    -0.022856679089995
  39      0.09873675364943
  40      0.36019296847169
  41      0.05242573876409
  42     0.030833040751218
  43    0.0057264869874462
  44    -0.098245828571279
  45      0.20637584494784
  46     0.030494004838504
  47     -0.22495957091037
  48       0.1479306207244
  49      -1.6667938924256
  50      -1.8705876124348
  51     -0.25536182205105
  52      0.46419153737276
  53    -0.059461434486306
  54    -0.0049552616127874
  55      0.38817194317543
  56      0.04383837735965
  57      -0.2334676927676
  58     -0.07857047407662
 Sym= A
 Ene=              13
 Spin= Alpha
 Occup=    0.00000
   1     -0.27662669959038
   2     -0.52995681986576
   3       2.0900312410684
   4     -0.34808633185161
   5    8.6381674929876e-05
   6    0.00011609670233062
   7       3.6691627102702
   8    -0.0001660589263206
   9    0.00024219794460096
  10     -0.13382822485438
  11    0.00014439341433018
  12    -0.0010232136006917
  13      0.23215099342857
  14    -0.00010790960034457
  15       0.1640464635258
  16      0.21027786634003
  17      -3.6234668751376
  18      0.32343986384507
  19    -9.6688601411784e-05
  20    -0.00033752813741656
  21       1.7666379760199
  22    3.1379534305858e-05
  23    -0.0006857422826625
  24     0.083269954568163
  25    -0.00019826976168438
  26    0.00042156724410949
  27     -0.14876253757775
  28    -0.00012417524808059
  29      0.15393423471391
  30     -0.12370719835255
  31    0.0087320975236221
  32    0.0014339278648774
  33    0.0010387075824518
  34      0.15208709176282
  35     -0.12395431310056
  36    0.0093905405676568
  37    -0.0021264855667555
  38    9.0738568987133e-05
  39      0.15246639628041
  40     -0.12402627601398
  41    0.0092859547262431
  42    0.00037810137344456
  43    -0.0025616570054623
  44      0.16792925780366
  45      0.50266084374376
  46     -0.29796520569252
  47      0.11803053663478
  48      0.14104828086678
  49      0.16747800763797
  50      0.50283686941706
  51     -0.29814906587836
  52     -0.18088181975589
  53     0.032002942592655
  54      0.16725773740513
  55      0.50267231584782
  56     -0.29827218000883
  57     0.063157814829059
  58     -0.17245540799843
 Sym= A
 Ene=              14
 Spin= Alpha
 Occup=    0.00000
   1     0.061141277495122
   2     0.070880632930627
   3      -1.1915792113554
   4     -0.12835536616338
   5     0.025534825342508
   6    -0.011580913607954
   7      -0.4370727610977
   8     -0.81265663237547
   9      0.27481197852457
  10     -0.01013106718319
  11      0.05344819775781
  12    0.0052079891957405
  13    -0.043215798166937
  14     -0.10301874604541
  15     -0.40743150195952
  16     -0.71836863110134
  17        3.405443713478
  18      0.16658362214078
  19     0.066579146749222
  20    -0.043911779365812
  21    -0.099597569436201
  22       2.4267232295209
  23      -1.1784460234586
  24     -0.10407155779182
  25     -0.13888685426569
  26     -0.31741515901141
  27     -0.13267763899129
  28      0.26231612365105
  29     -0.10054006130182
  30      0.20617924769645
  31    -0.029631747053166
  32     -0.26687752323235
  33     0.032226373052229
  34    -0.0028632477329865
  35       0.3883636016284
  36    -0.044690331518805
  37      -0.1280090954628
  38      0.21137646330869
  39      -1.6664986964803
  40       -1.870645470682
  41       0.2552054948009
  42      0.39438959752191
  43     -0.25162764362652
  44     0.043054079049847
  45      -0.1291643455977
  46    0.00059200251575167
  47     0.053824712448683
  48    -0.033564797907175
  49     0.098360931953403
  50      0.36017447189798
  51    -0.052547583732042
  52     0.020030346489603
  53    -0.024604067749552
  54     0.069923989867099
  55    -0.071416717562475
  56     0.065076359100094
  57     0.058012399607358
  58    -0.019159350108985
 Sym= A
 Ene=              15
 Spin= Alpha
 Occup=    0.00000
   1    -0.061149663767786
   2    -0.070883880521426
   3       1.1919926662417
   4      0.12842011479068
   5      0.02254079240082
   6     0.016318160111548
   7      0.43714446196544
   8     -0.64517123085445
   9     -0.56574498926246
  10    -0.031537173339474
  11    -0.062395166938351
  12    -0.023372180210563
  13     0.018906581567934
  14    -0.097675821617552
  15      0.40749255112636
  16      0.71848346439856
  17      -3.4057387659852
  18     -0.16671890033167
  19     0.071813350825029
  20     0.035082176278239
  21      0.10001027151494
  22       2.2348267159646
  23       1.5110359161167
  24      0.13488692145065
  25      0.15741848343899
  26     -0.29753607279814
  27       0.1505829417541
  28      0.25157229613646
  29    0.0050506986391785
  30     -0.38805355174027
  31     0.043801499502079