[Molden Format]
made by pyscf v[2.0.1]
[Atoms] (AU)
C   1   6     0.00000000000000     0.00000000000000     0.00000000000000
C   2   6     2.88195139270757     0.00000000000000     0.00000000000000
H   3   1     3.63065534584939     0.00000000000000     1.92469232395612
H   4   1     3.63065534584939    -1.66683244701491    -0.96234616197806
H   5   1     3.63065534584939     1.66683244701491    -0.96234616197806
H   6   1    -0.74870395314182    -0.65828354449728    -1.80861917410484
H   7   1    -0.74870395314182     1.89545192279507     0.33421931462451
H   8   1    -0.74870395314182    -1.23716837829778     1.47439985948033
[GTO]
1 0
 s    8 1.00
                  6665  0.00069158396281299
                  1000  0.0053257961529341
                   228   0.027060721042034
                 64.71    0.10165684614077
                 21.06     0.2745748236174
                 7.495    0.44829431892377
                 2.797    0.28490261071525
                0.5215   0.015194859206082
 s    8 1.00
                  6665  -0.00029326965268655
                  1000  -0.0023180354739745
                   228  -0.011499786038565
                 64.71  -0.046826727009787
                 21.06   -0.12846616875047
                 7.495   -0.30126627246289
                 2.797   -0.25563070233011
                0.5215      1.093793361012
 s    1 1.00
                0.1596                   1
 p    3 1.00
                 9.439   0.056979251590039
                 2.002    0.31320721150073
                0.5456    0.76037674173753
 p    1 1.00
                0.1517                   1
 d    1 1.00
                  0.55                   1

2 0
 s    8 1.00
                  6665  0.00069158396281299
                  1000  0.0053257961529341
                   228   0.027060721042034
                 64.71    0.10165684614077
                 21.06     0.2745748236174
                 7.495    0.44829431892377
                 2.797    0.28490261071525
                0.5215   0.015194859206082
 s    8 1.00
                  6665  -0.00029326965268655
                  1000  -0.0023180354739745
                   228  -0.011499786038565
                 64.71  -0.046826727009787
                 21.06   -0.12846616875047
                 7.495   -0.30126627246289
                 2.797   -0.25563070233011
                0.5215      1.093793361012
 s    1 1.00
                0.1596                   1
 p    3 1.00
                 9.439   0.056979251590039
                 2.002    0.31320721150073
                0.5456    0.76037674173753
 p    1 1.00
                0.1517                   1
 d    1 1.00
                  0.55                   1

3 0
 s    3 1.00
                 13.01   0.033498726389998
                 1.962    0.23480080117413
                0.4446     0.8136829578829
 s    1 1.00
                 0.122                   1
 p    1 1.00
                 0.727                   1

4 0
 s    3 1.00
                 13.01   0.033498726389998
                 1.962    0.23480080117413
                0.4446     0.8136829578829
 s    1 1.00
                 0.122                   1
 p    1 1.00
                 0.727                   1

5 0
 s    3 1.00
                 13.01   0.033498726389998
                 1.962    0.23480080117413
                0.4446     0.8136829578829
 s    1 1.00
                 0.122                   1
 p    1 1.00
                 0.727                   1

6 0
 s    3 1.00
                 13.01   0.033498726389998
                 1.962    0.23480080117413
                0.4446     0.8136829578829
 s    1 1.00
                 0.122                   1
 p    1 1.00
                 0.727                   1

7 0
 s    3 1.00
                 13.01   0.033498726389998
                 1.962    0.23480080117413
                0.4446     0.8136829578829
 s    1 1.00
                 0.122                   1
 p    1 1.00
                 0.727                   1

8 0
 s    3 1.00
                 13.01   0.033498726389998
                 1.962    0.23480080117413
                0.4446     0.8136829578829
 s    1 1.00
                 0.122                   1
 p    1 1.00
                 0.727                   1

[5d]
[7f]
[9g]

[MO]
 Sym= A
 Ene=               0
 Spin= Alpha
 Occup=    1.00000
   1       1.0026253276079
   2    -0.00040844526824194
   3    -0.012719339894538
   4    0.00096879975587497
   5    1.0790071427465e-07
   6    1.3770564191318e-07
   7    -0.00015673556417694
   8    5.0374615541022e-08
   9    6.5997570490866e-08
  10    9.0169405950012e-05
  11    -8.6358288349657e-09
  12    -3.4318737917672e-09
  13    -0.00015619632324014
  14    -4.953432514321e-09
  15    -1.4680263905958e-05
  16    -0.00044511702380329
  17    0.0018749025182472
  18    0.0011420380826405
  19    -1.1971673827109e-08
  20    -6.3115663999255e-08
  21    -0.00058742142042745
  22    -9.3227839107639e-09
  23    -3.2047061896221e-08
  24    0.00025177526060553
  25    -9.2692974524107e-09
  26    8.2508255206214e-10
  27    -0.00043609743325552
  28    -5.6441023908539e-09
  29    3.0751125869603e-05
  30    0.0001871671328829
  31    -3.3990125188548e-05
  32    4.9185231743696e-06
  33    -1.0976076570782e-05
  34    3.0864292483438e-05
  35    0.00018723951852242
  36    -3.3993993418647e-05
  37    7.0498245587131e-06
  38    9.748304534158e-06
  39    3.0833374018941e-05
  40    0.00018721336340181
  41    -3.3993282438113e-05
  42    -1.1968807899941e-05
  43    1.2276872797937e-06
  44    -0.0029106456033689
  45    0.00073855717132858
  46    -0.00021471317458764
  47    -0.00027090208150068
  48    -0.00074583185902008
  49    -0.0029103812367411
  50    0.00073867935859181
  51    -0.00021470410322937
  52    0.00078134792537815
  53    0.00013830777095942
  54    -0.002910462428714
  55    0.00073864483738561
  56    -0.00021470702541453
  57    -0.00051044754639399
  58    0.00060752219546824
 Sym= A
 Ene=               1
 Spin= Alpha
 Occup=    1.00000
   1    -1.4688417720686e-05
   2    -0.0004449096255893
   3    0.0018750456683189
   4    -0.0011418368231566
   5    4.8425354278352e-08
   6    -3.163555064456e-09
   7    0.00058751357240709
   8    2.457258467106e-08
   9    1.2341286427171e-09
  10    0.00025176754904108
  11    -3.5856160734545e-09
  12    1.9117178598233e-09
  13    -0.00043608061487343
  14    -7.018132697335e-09
  15       1.0026253231988
  16    -0.00040833146111861
  17    -0.012719251407085
  18    -0.00096904677611275
  19    -1.0372899501987e-07
  20    -7.7696116251601e-08
  21    0.00015662181912964
  22    -4.9639162363478e-08
  23    -3.5963123891485e-08
  24    9.0161559205871e-05
  25    -2.9974614220611e-09
  26    5.7568740718275e-09
  27    -0.00015617320509111
  28    -6.5534685100778e-09
  29    -0.0029105874774853
  30    0.00073857247784657
  31    0.00021470475688519
  32    5.1983075623517e-07
  33    0.0007935031149461
  34    -0.0029104049797058
  35    0.00073865527674621
  36    0.00021469845457683
  37    -0.00068744776441138
  38    -0.00039629456052864
  39    -0.0029105671247598
  40    0.00073857808684572
  41    0.00021470395550114
  42    0.00068692933880889
  43    -0.00039720724202013
  44    3.083394978166e-05
  45    0.00018717612267516
  46    3.3999416390813e-05
  47    8.3809856867376e-06
  48    8.6395888924997e-06
  49    3.0902918441634e-05
  50    0.00018722314388727
  51    3.4001716995762e-05
  52    -1.167405120758e-05
  53    2.9361759142384e-06
  54    3.0823387719954e-05
  55    0.00018717794017681
  56    3.3998778565591e-05
  57    3.293111073526e-06
  58    -1.1575235910504e-05
 Sym= A
 Ene=               2
 Spin= Alpha
 Occup=    1.00000
   1    -0.0050502185576258
   2      0.18324570307964
   3        0.105894232207
   4      -0.1235877791726
   5     -0.11779537306219
   6     -0.32646869158943
   7    -0.060852106465314
   8    -0.055387359817282
   9     -0.15264184412034
  10     0.015986297523607
  11     0.013173020607002
  12     0.011393847977388
  13    0.00072194631381983
  14     0.004728439937162
  15    -0.0024630114562579
  16    -0.020042245712336
  17    -0.012756847716515
  18     0.024203238968281
  19    0.00038786929905385
  20    -0.0010829475432625
  21      0.01394602188319
  22    0.0057296120734647
  23    0.0065558477631468
  24    0.00042574661270316
  25       0.0158121880587
  26    0.00045674603000252
  27    0.0055891414891175
  28    0.0055459398319209
  29     0.022684221713643
  30     0.040590428366334
  31    0.00043621302850981
  32    2.4030018385014e-05
  33    0.0012486539386099
  34    -0.018923264460684
  35     -0.02169573120028
  36    0.0016486111094243
  37    0.0005584410103128
  38    0.00071959610602487
  39    -0.0047239954444811
  40    -0.0037915059739167
  41    0.0019313534110758
  42    -7.131926398642e-05
  43    0.00066654997406439
  44      0.43307310215454
  45      0.16021331164199
  46     0.012806712835987
  47     0.010418051675854
  48      0.02823887585507
  49     -0.01942698994336
  50    -0.036720746929646
  51    -0.0025859472746571
  52    -0.006271889297442
  53    -0.010621630794714
  54    -0.019823639609499
  55    -0.037314403853538
  56    -0.0025669020782807
  57    -0.0020956960523257
  58    -0.012006180205555
 Sym= A
 Ene=               3
 Spin= Alpha
 Occup=    1.00000
   1    -0.0024629498012287
   2    -0.020042042336227
   3    -0.012756788777808
   4     -0.02420420058685
   5    0.00039899926367586
   6    -0.0010781010775388
   7    -0.013946476654864
   8    -0.0086031677234959
   9    0.0013394306925348
  10    -0.0022275224057793
  11      -0.0085478607473
  12    -0.0031945694400947
  13    0.0040571857355288
  14     0.014412409087672
  15    -0.0050504149441994
  16      0.18324519735191
  17       0.1058938811631
  18      0.12358839468757
  19      0.30008844652314
  20     -0.17436901838859
  21     0.060852397424424
  22      0.14054635696519
  23    -0.081326694307468
  24    -0.0038970583425255
  25    -0.0070516502935621
  26    -0.015968320638838
  27    -0.010757756504498
  28     0.012089727470216
  29    -0.019821041211195
  30    -0.037313254399617
  31    0.0025668335071893
  32    0.0093228808116327
  33    -0.0078503029743368
  34    -0.019429802604346
  35    -0.036721868013761
  36    0.0025860636077454
  37     0.011631842742253
  38    -0.0041051789971633
  39      0.43307318226267
  40      0.16021346281039
  41     -0.01280669633204
  42    -0.026132226918178
  43     0.014935733064616
  44    -0.0047239860402916
  45    -0.0037912733430463
  46    -0.0019313764386816
  47    -0.00037382718703213
  48    0.00055645067806955
  49    -0.018922894614849
  50    -0.021695810897745
  51    -0.0016486237915438
  52    -0.00089039871930752
  53    0.00019229452639219
  54     0.022685083020472
  55     0.040590703330255
  56    -0.0004362010768843
  57    -0.00082097447589625
  58    0.00094103154935229
 Sym= A
 Ene=               4
 Spin= Alpha
 Occup=    1.00000
   1    -0.0050508138943322
   2      0.18324639335857
   3      0.10589466678564
   4     -0.12358785274358
   5      0.34162752310822
   6     0.061219596085843
   7    -0.060852154566536
   8      0.15988527974006
   9     0.028353543479561
  10    -0.011012544377653
  11    -0.0024913751666895
  12    0.0066054669915286
  13     -0.01486582712261
  14    -0.013772418822855
  15    -0.0024631483790703
  16    -0.020041875190888
  17     -0.01275660639056
  18     0.024203155249815
  19    0.00074302266286278
  20    0.0008804065259025
  21     0.013945996537811
  22    -0.0085427452066989
  23    0.0016855027777349
  24    -0.0040259029925199
  25    -0.0031029997805437
  26    0.0025111589683543
  27    0.0030190175512973
  28     -0.01646674633562
  29    -0.0047211304665994
  30    -0.0037902302379803
  31    0.0019312532650483
  32    -0.00054161694091512
  33    -0.00039518736816975
  34     0.022683696666488
  35     0.040590092881852
  36    0.00043622725552276
  37    -0.0010934350548047
  38    -0.00060343599944806
  39    -0.018925118269915
  40    -0.021696607419096
  41    0.0016486730549895
  42    -0.00090231036627946
  43    0.00012384951422991
  44    -0.019822190781134
  45    -0.037313670599372
  46    -0.0025668489928853
  47     0.011445535080129
  48    0.0041882392685157
  49      0.43307305064046
  50      0.16021319356506
  51     0.012806708502364
  52     -0.02966462935682
  53    -0.005097177248439
  54    -0.019427276135821
  55    -0.036721187022204
  56    -0.0025859533577837
  57     0.012334545760641
  58    -0.00012084602006178
 Sym= A
 Ene=               5
 Spin= Alpha
 Occup=    1.00000
   1    -0.0024627097488851
   2    -0.020045260589037
   3    -0.012758910105792
   4    -0.024205917087507
   5    0.0007324695472348
   6    0.00088444945948295
   7    -0.013947253700466
   8    0.0031407846670592
   9    -0.0081203299991302
  10    3.9289308428769e-05
  11     0.016755409540622
  12    0.0016834058480544
  13     0.005365758081379
  14    0.0001965655461867
  15    -0.0050503220944957
  16       0.1832447636383
  17      0.10589338668897
  18       0.1235914727465
  19    0.00096455059865375
  20       0.3470679219147
  21     0.060853816884669
  22    0.00015821049719882
  23      0.16237967624959
  24     0.019450869062986
  25     0.013995811424484
  26    0.00040306632247246
  27    0.0027218138932791
  28    6.2157615683001e-05
  29      0.43307327047539
  30      0.16021355059775
  31    -0.012806629032597
  32    0.00013141632482148
  33     -0.03009906370292
  34    -0.019820615874089
  35     -0.03731316172793
  36    0.0025668924581581
  37    0.0021371858346724
  38     0.011999001356924
  39     -0.01942799615143
  40    -0.036720953748933
  41    0.0025860761804577
  42    -0.0022608243109923
  43     0.012126104191971
  44      0.02268463517625
  45     0.040590954706088
  46    -0.00043628225195609
  47    -0.0004045566425809
  48    -0.0011815932305476
  49    -0.0047265311406294
  50    -0.0037919347389214
  51    -0.0019315262347479
  52    -0.00029477123377756
  53    -0.00060192560400615
  54    -0.018922990238513
  55    -0.021695279521162
  56    -0.0016486915774632
  57    0.00027856264802911
  58    -0.00086719668862527
 Sym= A
 Ene=               6
 Spin= Alpha
 Occup=    1.00000
   1    -0.0050506001790667
   2      0.18324602216225
   3      0.10589427483746
   4     -0.12359003026246
   5      -0.2238318264654
   6      0.26524734221603
   7    -0.060853157401801
   8       -0.104497720657
   9      0.12428742919936
  10    0.0060782738584929
  11    -0.010681454835741
  12     -0.01799920594361
  13    -0.0049986969430102
  14    0.0090439092622771
  15    -0.0024629359531052
  16    -0.020044197234625
  17    -0.012758136590058
  18     0.024204379083033
  19    -0.0011320806970148
  20    0.00020500314959787
  21     0.013946549220974
  22    0.0028125813202692
  23    -0.008240153715486
  24    -0.003340897445555
  25    -0.012709003823942
  26    -0.0029678289404338
  27    0.0034143802702874
  28     0.010920742269226
  29    -0.018924287542108
  30    -0.021695818414733
  31    0.0016486904163472
  32    0.00034395718817587
  33    -0.00084330963629099
  34    -0.0047241052596293
  35    -0.0037912297621693
  36    0.0019313994054029
  37    0.00061285788684907
  38    -0.00027155127883709
  39     0.022683595882179
  40     0.040590382114484
  41    0.00043627817920946
  42    0.0010694116795542
  43    -0.00064519453063971
  44    -0.019425702795192
  45    -0.036720307581307
  46    -0.0025859533151031
  47    -0.006062592950423
  48     0.010742523845234
  49    -0.019822275012855
  50       -0.037313849842
  51    -0.002566905126945
  52    -0.0093499090969549
  53    0.0078179715214198
  54      0.43307310499903
  55      0.16021325419144
  56      0.01280666214009
  57      0.01924658500854
  58    -0.023141766131997
 Sym= A
 Ene=               7
 Spin= Alpha
 Occup=    1.00000
   1    -0.0024629504269571
   2    -0.020044099597928
   3     -0.01275819439841
   4    -0.024206102804385
   5    -0.001133106403239
   6    0.0001949431902631
   7    -0.013947362415649
   8    0.0054615679643154
   9     0.006781502804595
  10    -0.0047526674261088
  11    -0.0082076272791391
  12    0.0015110435091643
  13    0.0025991344287804
  14    -0.014608818719651
  15    -0.0050507483749788
  16       0.1832452117718
  17      0.10589368916772
  18      0.12359131037093
  19     -0.30105114252025
  20     -0.17269943175068
  21     0.060853760974225
  22     -0.14070366954851
  23    -0.081053272707624
  24    -0.0045016073924833
  25    -0.0069442444509058
  26      0.01556513702941
  27    -0.011107092480197
  28    -0.012151730257038
  29    -0.019428711649609
  30    -0.036721531065499
  31    0.0025860953063286
  32    -0.0093710762090945
  33    -0.0080209854357531
  34      0.43307325317096
  35      0.16021351555589
  36    -0.012806628131941
  37     0.026000877214478
  38     0.015163315576429
  39    -0.019819345450952
  40    -0.037312483822304
  41    0.0025668432335641
  42    -0.011460093483063
  43    -0.0041486220748273
  44    -0.018924431451675
  45    -0.021696123572896
  46    -0.0016487403474067
  47    0.00061167192382208
  48    0.00067484442031721
  49     0.022684879955826
  50     0.040590844015632
  51    -0.00043627091831439
  52    0.0012254889259586
  53    0.00024052101113939
  54    -0.0047234144430652
  55    -0.0037906648964641
  56    -0.0019314188230171
  57    0.00066881932494968
  58    4.5557153126584e-05
 Sym= A
 Ene=               8
 Spin= Alpha
 Occup=    1.00000
   1    0.0055242005026477
   2     -0.19659141679478
   3     -0.14784160549513
   4     -0.36748610824703
   5    1.3043351692498e-06
   6    -1.1372623326875e-06
   7     -0.17050407412332
   8    5.5189345443874e-07
   9    -5.1069864736015e-07
  10     0.015972459437589
  11    -2.8792252343207e-08
  12    6.4477989381238e-08
  13    -0.027665172048883
  14    3.5213258249698e-08
  15    0.0055249187243852
  16      -0.1965944768656
  17      -0.1478434014384
  18      0.36748461078043
  19    1.8385285102762e-06
  20    -1.5217808272479e-06
  21      0.17050336854959
  22    8.3863372240325e-07
  23    -6.7209009453706e-07
  24     0.015972331379883
  25    -7.5162192145559e-09
  26    -8.2644772684586e-08
  27     -0.02766503722968
  28    1.0420925734476e-08
  29     0.022347764645398
  30     0.037479295526089
  31    0.0094526715351652
  32    -1.190258666211e-06
  33    0.0013644241173876
  34      0.02234832298309
  35     0.037479518173604
  36    0.0094526488654164
  37    -0.0011809431992502
  38    -0.00068333299302163
  39      0.02235092874287
  40     0.037480467541067
  41    0.0094525625143384
  42    0.0011820905034289
  43    -0.00068105798346045
  44     0.022351469525431
  45     0.037480249422205
  46    -0.0094525553419068
  47    -0.00046767185805402
  48    -0.0012814202271503
  49     0.022351823234814
  50     0.037480376586949
  51    -0.0094525380644827
  52    0.0013435724316068
  53    0.0002356065745747
  54     0.022349672299699
  55     0.037479724003101
  56    -0.0094526133337975
  57    -0.0008759351112804
  58     0.001045846995475
 Sym= A
 Ene=               9
 Spin= Alpha
 Occup=    0.00000
   1     -0.16449712903078
   2     -0.21107231566768
   3       3.6231241871326
   4      0.32436808433733
   5    -7.9476146222569e-05
   6    -0.00038533458650268
   7       1.7670370537285
   8    -0.00025683874010098
   9    -0.00053918993712916
  10    -0.083705888726544
  11    0.00028783381636978
  12    0.0019573160248742
  13      0.14878499841165
  14    -3.7369003578564e-05
  15      0.27912056120201
  16      0.53522799663217
  17      -2.1042391967717
  18     -0.34653225922061
  19    -0.00010945402350052
  20    4.3426704912704e-05
  21       3.6672382890918
  22    4.0891083488159e-05
  23    -0.00034888761927568
  24      0.13334470182305
  25    -9.0885067333436e-05
  26    0.00058926861770929
  27     -0.23072978373277
  28    -0.00023361113887325
  29     -0.16877902093501
  30     -0.49714725757564
  31     -0.29942884833431
  32    8.5110894892809e-05
  33       0.1843517053053
  34     -0.16915737933798
  35     -0.49745313343061
  36     -0.29933454915846
  37     -0.15994203788118
  38    -0.091888488480895
  39      -0.1686274788505
  40     -0.49754689192028
  41     -0.29950120556944
  42      0.15941365160102
  43    -0.092273733928478
  44     -0.15416044861284
  45      0.12359996787082
  46    0.0083533001320097
  47    -0.00044794287438525
  48      0.00300973503573
  49     -0.15236438163516
  50      0.12388037073075
  51    0.0090755111824566
  52    -0.0029767575363787
  53    -0.0026582456691468
  54     -0.15207521911791
  55      0.12380600655408
  56    0.0091451185948555
  57    0.0030446756008449
  58    -0.0020728767055046
 Sym= A
 Ene=              10
 Spin= Alpha
 Occup=    0.00000
   1    -0.058397859748872
   2    -0.066595429070585
   3       1.1604749186598
   4      0.12841243668145
   5     0.022370359863609
   6     0.015715507018242
   7      0.44309758541602
   8     -0.51777029914539
   9     -0.48574404904317
  10    -0.051226462356671
  11    -0.063137826621362
  12    0.0048988408167837
  13     0.014766370598689
  14     -0.09676642591999
  15       0.4084474888876
  16       0.7214576843834
  17      -3.4020463272926
  18     -0.16368239404461
  19     0.069719728224182
  20     0.033059893577444
  21      0.10066090015953
  22       2.1714873863656
  23       1.5026466059539
  24      0.14162666700464
  25      0.16463030792138
  26     -0.29890146228883
  27      0.15363398440514
  28      0.25555670648189
  29    -0.0044392358797065
  30     -0.37937492582394
  31     0.045210404296831
  32     -0.24124288442063
  33    -0.002780111264018
  34       1.6570988360923
  35       1.8309602473093
  36     -0.25506343417954
  37      0.41504271822752
  38      0.21146674893565
  39      0.10873271714872
  40     -0.17780639631355
  41     0.028144192534778
  42     -0.16109590830219
  43     -0.21279603288921
  44    -0.074461447959525
  45     -0.22337013718698
  46     0.060922153773733
  47     0.044769175770103
  48    0.0085895269939694
  49    -0.077265819242493
  50     0.033935698541741
  51    -0.089899835584924
  52     0.042568857135583
  53     0.035682339981738
  54    -0.042372067347433
  55     0.055710228252031
  56     0.027594180354941
  57      0.04976692411492
  58     0.035490986892327
 Sym= A
 Ene=              11
 Spin= Alpha
 Occup=    0.00000
   1      0.40845286505591
   2      0.72148000976266
   3      -3.4020140845419
   4      0.16366583461269
   5     0.020347327151538
   6     0.074387483516539
   7     -0.10057024532559
   8        1.104635242057
   9       2.3987024158203
  10     -0.28206048695447
  11     -0.28018516687557
  12     -0.21246132220229
  13    -0.090991681679467
  14     -0.11791615799338
  15    -0.058412155066592
  16    -0.066629962558596
  17       1.1604662627301
  18     -0.12838460441197
  19     0.011630331704074
  20     0.024764922447723
  21     -0.44309408806931
  22     -0.38929354442152
  23     -0.59413346458924
  24     0.012324464135088
  25      0.10621426933304
  26    -0.0080252074956325
  27      0.05145461519484
  28      0.04542816426724
  29    -0.077241926478212
  30     0.033912404715088
  31     0.089863806030162
  32      0.02783792547377
  33     0.048111641615294
  34    -0.074590759786879
  35     -0.22359803752164
  36    -0.060942095553148
  37    0.00069884585222304
  38     0.045537907985499
  39    -0.042285452881721
  40     0.055951725959246
  41    -0.027541660388617
  42     0.026339244428446
  43     0.055205255822809
  44       1.6570191703705
  45       1.8309016081672
  46      0.25501600397374
  47      0.13594102645843
  48      0.44550065329631
  49    -0.0050195524505401
  50     -0.38021296653545
  51    -0.045387192585595
  52      0.03921831249505
  53     -0.23799012611015
  54      0.10937222394584
  55     -0.17691618671279
  56     -0.02805676692284
  57     -0.18158651543292
  58     -0.19578652909727
 Sym= A
 Ene=              12
 Spin= Alpha
 Occup=    0.00000
   1     -0.40842313352512
   2     -0.72141636897476
   3       3.4017440076184
   4     -0.16360207955105
   5     0.074201015039012
   6     0.019227889348515
   7      0.10045022602829
   8       2.6288430594147
   9      0.24193312912556
  10     -0.25070998027003
  11    -0.037927675572823
  12      0.14523341069184
  13     -0.21531451653912
  14     -0.30154818250601
  15     0.058297689234777
  16     0.066390909948087
  17      -1.1602628332962
  18      0.12850435253379
  19     0.027523967168063
  20    0.0020289461026457
  21      0.44316657947745
  22     -0.70845183017721
  23     0.039976818750394
  24     0.028390683800115
  25     0.013374560921536
  26    -0.037463507223575
  27    -0.028423730537045
  28      0.11486787952882
  29     0.042774810608238
  30    -0.055905777410004
  31     0.027452394880205
  32     0.061413363539826
  33    0.0045066984116378
  34     0.077737437825307
  35    -0.033790666680499
  36    -0.090038519392245
  37     0.055906889722915
  38    -0.00025454713990452
  39     0.073426096724382
  40      0.22340325992413
  41     0.061329031192764
  42     0.040222736341436
  43      0.02200315881893
  44     -0.11077091722515
  45      0.17661414477095
  46     0.027647370590757
  47     -0.26108710203402
  48     0.059002044582602
  49      -1.6551871594735
  50      -1.8307252641098
  51     -0.25408095221079
  52      0.45319915863638
  53      0.10451324114049
  54    0.0051778793892677
  55       0.3802952592465
  56     0.045632119995385
  57     -0.18725738201646
  58     -0.15358245073104
 Sym= A
 Ene=              13
 Spin= Alpha
 Occup=    0.00000
   1      -0.2791545196617
   2     -0.53531140816904
   3       2.1043721972344
   4     -0.34656603993204
   5    -4.8609569621281e-05
   6    0.00011979921945846
   7       3.6672324280038
   8    0.00037609818192751
   9    -0.00010994635757822
  10     -0.13334290436828
  11    -0.00026113550783999
  12    -0.00061018759929086
  13      0.23073419141906
  14    -8.994860032242e-05
  15      0.16450702840487
  16      0.21110377355183
  17      -3.6231713898893
  18      0.32434527149201
  19    0.00035312111835905
  20    0.0001282692226194
  21       1.7670289915652
  22    0.00051923192413968
  23    0.00042962252956767
  24     0.086323741927659
  25    -1.6116977101341e-05
  26    -0.0024764191769416
  27       -0.147268122023
  28    0.00027527303503879
  29      0.15236042092758
  30     -0.12390628071694
  31    0.0090928262236053
  32    0.0020963800484889
  33    0.0033649164218842
  34      0.15416187098593
  35     -0.12356593193825
  36     0.008355588202446
  37    -0.0030505890126608
  38    -8.8435249794037e-05
  39      0.15208127630719
  40       -0.123802462267
  41    0.0091508805333195
  42    0.0025649846786144
  43    -0.0026439528503633
  44      0.16913829991972
  45      0.49738731000146
  46     -0.29933303734587
  47     0.062710031284816
  48      0.17348472479028
  49      0.16875419797674
  50      0.49710640082107
  51     -0.29942107371409
  52     -0.18149752436506
  53    -0.032063806937052
  54      0.16864577542264
  55      0.49759384426372
  56     -0.29949668435842
  57      0.11856500613597
  58     -0.14096772326982
 Sym= A
 Ene=              14
 Spin= Alpha
 Occup=    0.00000
   1     0.058341984505862
   2     0.066461643049326
   3      -1.1610607049936
   4     -0.12861789402589
   5     0.024955892750522
   6    -0.011198983187464
   7     -0.44336211290105
   8     -0.67901833829356
   9      0.20616508885035
  10    0.0051818354792842
  11     0.051969426536133
  12     0.033355644543192
  13    -0.041365245790444
  14     -0.10320610029265
  15     -0.40852780851691
  16     -0.72160132742008
  17       3.4023737087715
  18      0.16379093680002
  19     0.062942992855421
  20    -0.044060212524558
  21     -0.10110099858201
  22        2.385950608493
  23      -1.1293971649651
  24     -0.10798323930068
  25     -0.13916009028486
  26     -0.31790027044468
  27     -0.13308698735974
  28      0.27007417111451
  29     -0.10813310157614
  30      0.17780815429244
  31    -0.028386563265612
  32     -0.26579402267432
  33     0.032827618561014
  34    0.0026123831178178
  35      0.37918504345484
  36    -0.044714988084061
  37     -0.12392545320222
  38      0.20743349215809
  39      -1.6554743303316
  40       -1.830694742362
  41      0.25428524403346
  42      0.38976252720097
  43      -0.2540239038705
  44       0.0435713899998
  45    -0.055480614986309
  46     -0.02719573411707
  47     0.055863337129967
  48    -0.024933356984812
  49     0.073733098364595
  50      0.22321359157431
  51    -0.061127569138385
  52     0.030057435419695
  53    -0.034059587736062
  54      0.07693257693265
  55    -0.034017449396803
  56     0.089787974854983
  57     0.052425481659471
  58    -0.018614070127503
 Sym= A
 Ene=              15
 Spin= Alpha
 Occup=    0.00000
   1      0.05830012988277
   2     0.066388435391452
   3       -1.160333287101
   4      -0.1285224238699
   5    -0.0027416089075573
   6     0.027466300892722
   7     -0.44322692887072
   8       0.1615888564675
   9     -0.69064257132754
  10    -0.00014297142818009
  11     -0.11549385405671
  12    -0.031697287600284
  13    -0.044904907257628
  14    0.0066880137628073
  15     -0.40841273163519
  16     -0.72137986230802
  17       3.4017973573079
  18      0.16360348100507
  19    0.0059528913811806
  20     0.076440035262456
  21     -0.10051937484657
  22     -0.21617600356004
  23        2.631007553322
  24      0.33789731063543
  25       0.3035513225728
  26     0.025239207827683
  27      0.12452570292263
  28    -0.014813139339239
  29      -1.6552502248066
  30      -1.8308021759704
  31      0.25410729561949
  32     0.023950245426163