[Molden Format]
made by pyscf v[2.0.1]
[Atoms] (AU)
C   1   6     0.00000000000000     0.00000000000000     0.00000000000000
C   2   6     2.88195139270757     0.00000000000000     0.00000000000000
H   3   1     3.63065534584939     0.00000000000000     1.92469232395612
H   4   1     3.63065534584939    -1.66683244701491    -0.96234616197806
H   5   1     3.63065534584939     1.66683244701491    -0.96234616197806
H   6   1    -0.74870395314182    -1.80861917410484    -0.65828354449729
H   7   1    -0.74870395314182     1.47439985948033    -1.23716837829778
H   8   1    -0.74870395314182     0.33421931462451     1.89545192279507
[GTO]
1 0
 s    8 1.00
                  6665  0.00069158396281299
                  1000  0.0053257961529341
                   228   0.027060721042034
                 64.71    0.10165684614077
                 21.06     0.2745748236174
                 7.495    0.44829431892377
                 2.797    0.28490261071525
                0.5215   0.015194859206082
 s    8 1.00
                  6665  -0.00029326965268655
                  1000  -0.0023180354739745
                   228  -0.011499786038565
                 64.71  -0.046826727009787
                 21.06   -0.12846616875047
                 7.495   -0.30126627246289
                 2.797   -0.25563070233011
                0.5215      1.093793361012
 s    1 1.00
                0.1596                   1
 p    3 1.00
                 9.439   0.056979251590039
                 2.002    0.31320721150073
                0.5456    0.76037674173753
 p    1 1.00
                0.1517                   1
 d    1 1.00
                  0.55                   1

2 0
 s    8 1.00
                  6665  0.00069158396281299
                  1000  0.0053257961529341
                   228   0.027060721042034
                 64.71    0.10165684614077
                 21.06     0.2745748236174
                 7.495    0.44829431892377
                 2.797    0.28490261071525
                0.5215   0.015194859206082
 s    8 1.00
                  6665  -0.00029326965268655
                  1000  -0.0023180354739745
                   228  -0.011499786038565
                 64.71  -0.046826727009787
                 21.06   -0.12846616875047
                 7.495   -0.30126627246289
                 2.797   -0.25563070233011
                0.5215      1.093793361012
 s    1 1.00
                0.1596                   1
 p    3 1.00
                 9.439   0.056979251590039
                 2.002    0.31320721150073
                0.5456    0.76037674173753
 p    1 1.00
                0.1517                   1
 d    1 1.00
                  0.55                   1

3 0
 s    3 1.00
                 13.01   0.033498726389998
                 1.962    0.23480080117413
                0.4446     0.8136829578829
 s    1 1.00
                 0.122                   1
 p    1 1.00
                 0.727                   1

4 0
 s    3 1.00
                 13.01   0.033498726389998
                 1.962    0.23480080117413
                0.4446     0.8136829578829
 s    1 1.00
                 0.122                   1
 p    1 1.00
                 0.727                   1

5 0
 s    3 1.00
                 13.01   0.033498726389998
                 1.962    0.23480080117413
                0.4446     0.8136829578829
 s    1 1.00
                 0.122                   1
 p    1 1.00
                 0.727                   1

6 0
 s    3 1.00
                 13.01   0.033498726389998
                 1.962    0.23480080117413
                0.4446     0.8136829578829
 s    1 1.00
                 0.122                   1
 p    1 1.00
                 0.727                   1

7 0
 s    3 1.00
                 13.01   0.033498726389998
                 1.962    0.23480080117413
                0.4446     0.8136829578829
 s    1 1.00
                 0.122                   1
 p    1 1.00
                 0.727                   1

8 0
 s    3 1.00
                 13.01   0.033498726389998
                 1.962    0.23480080117413
                0.4446     0.8136829578829
 s    1 1.00
                 0.122                   1
 p    1 1.00
                 0.727                   1

[5d]
[7f]
[9g]

[MO]
 Sym= A
 Ene=               0
 Spin= Alpha
 Occup=    1.00000
   1       1.0026329789688
   2    -0.00039396591750509
   3    -0.012766690420104
   4    0.00097319437559217
   5    2.2649115115525e-07
   6    7.9363927681262e-08
   7    -0.00016740661645029
   8    1.1096938097556e-07
   9    3.8426487666956e-08
  10    8.9250018493022e-05
  11    -4.5218857643714e-09
  12    -7.7052887395391e-09
  13    -0.00015456634264467
  14    -1.3201130482561e-08
  15    -2.7329946130652e-05
  16    -0.00046781287827271
  17    0.0019849716064496
  18    0.0011468657096303
  19    -8.9744093686434e-08
  20    -2.9167061549441e-08
  21    -0.0005802371251136
  22    -5.1071132786089e-08
  23    -1.8022020510542e-08
  24    0.00025948032350037
  25    -4.8560218380621e-09
  26    5.0599067391791e-09
  27    -0.00044943495213022
  28    -1.4303019608618e-08
  29    1.4337833360053e-05
  30    0.00016581397438268
  31    -2.5287730929887e-05
  32    -2.8470069811589e-06
  33    -1.0514707275347e-05
  34    1.4464695339241e-05
  35    0.00016588848806552
  36    -2.5291052691612e-05
  37    1.053154058893e-05
  38    2.7971618618362e-06
  39    1.4302350385906e-05
  40    0.00016579195542489
  41    -2.5286398478412e-05
  42    -7.684145120456e-06
  43    7.7178093282939e-06
  44    -0.0029100671488151
  45    0.00074318349501591
  46    -0.00021521074696888
  47    -0.00074375171857962
  48    -0.00027043554061744
  49    -0.002909742674901
  50    0.0007433335061219
  51    -0.00021520022558619
  52    0.00060607234027118
  53    -0.00050887543163612
  54    -0.0029097468221854
  55    0.0007433318017877
  56    -0.00021520021301342
  57    0.00013767580369719
  58    0.00077930976390467
 Sym= A
 Ene=               1
 Spin= Alpha
 Occup=    1.00000
   1    -2.733418941498e-05
   2    -0.00046755374645057
   3    0.0019851467148084
   4    -0.0011466735371795
   5    -1.7139865998466e-09
   6    8.286006334793e-08
   7    0.00058032518714257
   8    5.1245717314272e-09
   9    4.422926845937e-08
  10    0.00025947572647678
  11    -1.0084331204079e-08
  12    2.6728904248317e-09
  13    -0.00044941731277999
  14    -6.2436787823662e-09
  15       1.0026329745037
  16    -0.00039387157312085
  17    -0.012766612848653
  18    -0.00097346706295014
  19    -1.3385821384201e-07
  20    -1.428282201307e-07
  21    0.00016728167614374
  22    -6.3026630593666e-08
  23    -7.0872506410297e-08
  24    8.9221673910432e-05
  25    -9.5844131592265e-09
  26    7.1212383682042e-09
  27    -0.00015455098945699
  28    -5.2170982139754e-09
  29    -0.0029100229635285
  30    0.00074319176998504
  31    0.00021520229459524
  32    -2.5603827430212e-07
  33    0.00079139021170753
  34    -0.0029097277223042
  35    0.00074332825241642
  36    0.00021519258714479
  37    -0.00068522517852235
  38    -0.00039590789322642
  39    -0.0029099292685399
  40    0.00074324049807306
  41    0.0002151994982383
  42    0.00068548354831362
  43    -0.00039548021528983
  44    1.439868053577e-05
  45    0.00016579534832642
  46    2.5296307558723e-05
  47    8.9172636310524e-06
  48    6.2749000565235e-06
  49    1.4386844881568e-05
  50    0.00016580117586295
  51    2.5295252610358e-05
  52    -9.8886441939175e-06
  53    4.5876403690701e-06
  54    1.4515854566994e-05
  55    0.00016586835971047
  56    2.5299470913084e-05
  57    9.7199708074292e-07
  58    -1.0863192940055e-05
 Sym= A
 Ene=               2
 Spin= Alpha
 Occup=    1.00000
   1    -0.0051540314481349
   2      0.18289541237866
   3      0.10673987653473
   4     -0.12363688183838
   5     -0.32671950450013
   6      -0.1183020593699
   7    -0.060307022249511
   8      -0.1547774328061
   9     -0.05624203443896
  10    -0.0080841025450126
  11    0.0046651470628684
  12     0.011165466882051
  13    -0.013348043939937
  14     0.012927426423551
  15    -0.0024161246475499
  16    -0.020186351382201
  17    -0.013507707574514
  18     0.024404945303058
  19    0.00018407707342513
  20    0.0005171890851972
  21     0.014860938758121
  22     0.012371521899245
  23    0.0065184023501879
  24    -0.0029228081485127
  25    0.0055311932645183
  26    -0.00070970413943425
  27    0.0037124195811937
  28     0.015530879774542
  29    0.0080880090751721
  30     0.014703464561134
  31     0.001460209800144
  32    0.00029315525437801
  33    0.00027213382163073
  34    -0.024103077356358
  35    -0.027634326898713
  36    0.0011685091170335
  37    0.00074875722474394
  38    0.00035156187894839
  39      0.01557493455493
  40     0.027254172439176
  41    0.0010010316380488
  42    0.00069336079408519
  43    -0.00025473373213847
  44      0.43302243109091
  45      0.15991424630582
  46     0.012665634666416
  47     0.028393636911869
  48      0.01041652119127
  49    -0.019779921030678
  50    -0.036776201524464
  51    -0.0025691100908508
  52    -0.011986586227539
  53    -0.0021681425189303
  54    -0.019527212691261
  55    -0.036419048824108
  56    -0.0025791451098841
  57    -0.010622973306824
  58    -0.0061388063708765
 Sym= A
 Ene=               3
 Spin= Alpha
 Occup=    1.00000
   1    -0.0024158919327839
   2    -0.020187226132064
   3     -0.01350846837048
   4    -0.024408144295699
   5    -0.00042231507293808
   6    -0.00035042100831078
   7    -0.014862437756024
   8    -0.0018937485005821
   9    -0.013855094844237
  10    -0.0022853637428119
  11      0.01648604656972
  12    -0.0009776033217832
  13    0.0040801466069328
  14    -0.00011414998854829
  15    -0.0051541277060284
  16      0.18289406974366
  17      0.10673884364484
  18      0.12363985292908
  19    -0.00057432045416756
  20      0.34747740648598
  21     0.060308416298572
  22    -8.5498952325683e-05
  23      0.16467904789159
  24     0.019046666220882
  25     0.013743400900407
  26    -0.00023705594776418
  27    0.0023156433443283
  28    -3.7561185583218e-05
  29      0.43302261552658
  30       0.1599145597846
  31    -0.012665557127684
  32    -7.704660323292e-05
  33    -0.030243947880108
  34     -0.01952887019387
  35    -0.036419556792517
  36    0.0025792852462282
  37    0.0021352628973405
  38     0.012081837671516
  39    -0.019777514492585
  40    -0.036775023188507
  41    0.0025691097207883
  42    -0.0020623470387693
  43     0.012005345942588
  44    0.0080883705079729
  45     0.014703908679119
  46    -0.0014602873096874
  47    -0.00015543655018203
  48    -0.00036856891116674
  49     0.015576187900705
  50     0.027254695480832
  51    -0.0010010675465325
  52    0.00047644842266075
  53    -0.00056436691137261
  54    -0.024102853540693
  55    -0.027634142847301
  56    -0.0011685875644802
  57    -7.4251315006419e-05
  58    -0.00082387119423918
 Sym= A
 Ene=               4
 Spin= Alpha
 Occup=    1.00000
   1    -0.0024157923851041
   2    -0.020188971300497
   3    -0.013509591587213
   4       -0.024408607418
   5    -9.2485370356768e-05
   6    0.00053901461672836
   7    -0.014862654975613
   8    -0.011052049343624
   9     0.008566630618677
  10    -0.0030977285733933
  11    -0.0081440509850773
  12    0.00043602400192481
  13    0.0036111009568045
  14     0.014334387950254
  15    -0.0051543133280086
  16       0.1828946095866
  17      0.10673907716914
  18      0.12364143312455
  19      0.30121081353076
  20     -0.17324049588456
  21      0.06030914467752
  22      0.14265869786608
  23    -0.082265008553639
  24    -0.004062560933514
  25    -0.0068390472199287
  26    -0.015169149614107
  27    -0.011026660301875
  28     0.011920899413372
  29     -0.01952724039849
  30    -0.036418825269865
  31    0.0025792676823618
  32    0.0093955280865726
  33    -0.0078902203955977
  34    -0.019776724142578
  35    -0.036774859123972
  36    0.0025691144316863
  37     0.011428167458824
  38    -0.0042165562137436
  39       0.4330225171456
  40      0.15991437024111
  41    -0.012665524417831
  42    -0.026153531524222
  43     0.015188730997744
  44     0.015576171991853
  45     0.027254936729679
  46    -0.0010010929724551
  47    -0.00072701539450651
  48    -0.00013050490059706
  49    -0.024102522228584
  50    -0.027633663715099
  51    -0.0011686032576136
  52    -0.0006763618415649
  53    0.00047616975405454
  54    0.0080859396957642
  55     0.014703080201342
  56    -0.0014603916555321
  57    -0.00024143598828152
  58    0.00031906817743424
 Sym= A
 Ene=               5
 Spin= Alpha
 Occup=    1.00000
   1    -0.0051547321565358
   2      0.18289555703488
   3        0.106739803631
   4     -0.12363953854425
   5     0.060906190559275
   6      0.34209747225684
   7    -0.060308283390649
   8      0.02868114662648
   9      0.16216181500331
  10     0.018054454903177
  11    -0.013528073299592
  12    0.0062602367140256
  13    0.0017428366328553
  14    -0.0024234365643426
  15    -0.0024163339588581
  16     -0.02018695105646
  17     -0.01350822830989
  18      0.02440723727125
  19    0.00035800948560055
  20    -0.00041923518809394
  21     0.014862033682345
  22    -0.00053960745599854
  23    -0.013973792941624
  24    -0.0025781968841803
  25    -0.016215736584048
  26    0.00093932147475153
  27    0.0039112101803184
  28    -0.0029751545761592
  29    -0.024103614900978
  30    -0.027634411126213
  31    0.0011685933605487
  32    -6.9848896186214e-05
  33    -0.00082420326405075
  34     0.015574224811261
  35     0.027253866588058
  36    0.0010011157438249
  37    -0.00056726695585879
  38    -0.0004731665763718
  39    0.0080906485879929
  40     0.014704729895419
  41     0.001460183895916
  42    8.8977206319412e-05
  43    -0.00038987591305759
  44    -0.019777785841346
  45    -0.036775193714448
  46    -0.0025691061548975
  47    0.0041157633133393
  48      0.01146479191606
  49    -0.019526550160407
  50    -0.036418949619297
  51    -0.002579182351339
  52    -4.9732804427098e-06
  53     0.012269193823672
  54      0.43302247452485
  55      0.15991427907058
  56     0.012665566731368
  57    -0.0051758800598518
  58    -0.029797908228857
 Sym= A
 Ene=               6
 Spin= Alpha
 Occup=    1.00000
   1    -0.0024161368498323
   2    -0.020187275298722
   3    -0.013508501127816
   4    -0.024408250638002
   5    0.00051531265016088
   6    -0.00019009488534823
   7    -0.014862505045856
   8     0.012946040172886
   9    0.0052876824182804
  10    -0.001631241248247
  11    -0.0083418524154612
  12    0.00054151287603232
  13    0.0044578322577262
  14     -0.01422026772074
  15    -0.0051547880008248
  16      0.18289495691684
  17      0.10673937125064
  18      0.12364041766164
  19     -0.30063668604915
  20      -0.1742351414535
  21     0.060308692830895
  22     -0.14257331707518
  23    -0.082413144277071
  24    -0.0037070376027012
  25    -0.0069042124884536
  26     0.015406210757508
  27    -0.010821250911511
  28    -0.011883369863037
  29     -0.01977610229205
  30     -0.03677457206745
  31    0.0025690690804249
  32    -0.0093657488692063
  33    -0.0077888329827517
  34      0.43302257839694
  35      0.15991445965895
  36    -0.012665545570956
  37     0.026230572163979
  38     0.015055284119821
  39    -0.019528364187409
  40     -0.03641950186616
  41    0.0025792762680089
  42    -0.011530854814425
  43    -0.0041916646554259
  44    -0.024103469066793
  45    -0.027634351322975
  46    -0.0011686157321454
  47    0.00075058650105823
  48    0.00034762492424469
  49    0.0080886240772016
  50     0.014704057278691
  51    -0.0014602839268335
  52    0.00039691402393845
  53    4.9698232353574e-05
  54      0.01557661003904
  55     0.027254828172484
  56    -0.0010010563868657
  57    0.00025054517491858
  58    0.00069476856426825
 Sym= A
 Ene=               7
 Spin= Alpha
 Occup=    1.00000
   1    -0.0051547120597323
   2      0.18289511319793
   3      0.10673944009296
   4     -0.12364078402371
   5      0.26581103034776
   6      -0.2237959958031
   7    -0.060308844788632
   8       0.1260951377175
   9     -0.10592001032758
  10    0.0013063742745219
  11    0.0088629030709578
  12    -0.017425616847157
  13     -0.00792683682885
  14    -0.010503813304303
  15    -0.0024160275355772
  16    -0.020188617004599
  17    -0.013509319459254
  18     0.024407885009663
  19    -0.00054027262078916
  20    -9.8934890690268e-05
  21     0.014862321790397
  22    -0.011830968273807
  23    0.0074549590600516
  24    -0.0015135419752223
  25     0.010684531700852
  26    -0.00022971300365169
  27    0.0045258092180098
  28    -0.012555545011341
  29     0.015574969388852
  30     0.027254497182123
  31    0.0010011202882264
  32    -0.00012608386753888
  33    0.00072787466359784
  34    0.0080879393617629
  35      0.01470371546285
  36    0.0014602988693066
  37    -0.00038229433885503
  38    0.00011780171157851
  39    -0.024103494586678
  40    -0.027634081924286
  41    0.0011686156755649
  42    -0.00067877653614943
  43    0.00047262628763038
  44    -0.019525143609615
  45    -0.036418148584388
  46    -0.0025791715745494
  47     0.010627977715702
  48    -0.0061302882804657
  49      0.43302250809901
  50      0.15991432529811
  51     0.012665539852453
  52    -0.023217834964751
  53      0.01938136484336
  54    -0.019778695941325
  55    -0.036775660407804
  56    -0.0025691646088031
  57     0.007870900468893
  58    -0.0092967121901864
 Sym= A
 Ene=               8
 Spin= Alpha
 Occup=    1.00000
   1    0.0054895950704557
   2     -0.19704197206384
   3     -0.14775351113466
   4     -0.36708679199788
   5    -2.5307612016585e-06
   6    1.9861030609212e-07
   7     -0.17038816098409
   8    -1.1668156864915e-06
   9    6.9329434069706e-08
  10     0.016070047369615
  11    1.4685945551711e-08
  12    1.1439447642981e-07
  13    -0.027834247827873
  14    5.7729678913191e-08
  15    0.0054903494750936
  16     -0.19704440148169
  17     -0.14775496027595
  18      0.36708560335846
  19    -8.8770107933831e-07
  20    4.8626296762678e-07
  21      0.17038761784977
  22    -3.1976473569812e-07
  23    2.3554793277835e-07
  24     0.016070037748461
  25    8.9501200797766e-09
  26    4.2185660303022e-08
  27    -0.027834084653327
  28    8.4796026091524e-08
  29     0.022137079313494
  30      0.03732762852071
  31    0.0094913383650704
  32    2.7719752131868e-07
  33    0.0014193704110902
  34     0.022136985692732
  35     0.037327481835676
  36    0.0094913340972284
  37    -0.0012293700029254
  38    -0.00070939762667574
  39     0.022135954070784
  40     0.037327317477185
  41     0.009491379335329
  42     0.001229121222844
  43    -0.00070998417446825
  44     0.022140207000274
  45     0.037328567882497
  46    -0.0094912389628315
  47    -0.0013334318702711
  48    -0.00048561674804404
  49     0.022136522232513
  50     0.037327078688875
  51    -0.0094913664721461
  52    0.0010874118945292
  53    -0.00091211111140518
  54     0.022138011447123
  55     0.037327646086328
  56    -0.0094913124900428
  57    0.00024606967295326
  58     0.001397722597226
 Sym= A
 Ene=               9
 Spin= Alpha
 Occup=    0.00000
   1     -0.16398287550928
   2     -0.21022215635166
   3       3.6236225377027
   4       0.3230048975889
   5    6.9046189944922e-05
   6    0.00029433368655622
   7        1.766366421768
   8    5.6773867109423e-05
   9    0.00082857268778157
  10    -0.083416490614853
  11    -0.00037224046759835
  12    0.00060308390804984
  13      0.14856634111079
  14    -0.00019395582282082
  15      0.27529730938889
  16      0.52717907110538
  17      -2.0823484571362
  18     -0.34856878275914
  19    9.3833532442602e-05
  20    -7.052258332315e-05
  21       3.6700371284163
  22    8.6259011040805e-05
  23    -0.00065779221815365
  24      0.13408499591328
  25    -0.00035970068028266
  26    -0.0011659093090357
  27     -0.23256183683757
  28    -0.00027126755911358
  29      -0.1668894004429
  30     -0.50495275252695
  31     -0.29764389159947
  32    0.00025675599404883
  33      0.18349530388714
  34     -0.16711422254478
  35     -0.50539521259211
  36     -0.29789129056777
  37     -0.15892282352643
  38    -0.091964462883974
  39     -0.16771918564938
  40     -0.50534229877341
  41     -0.29746207967025
  42      0.15934321055133
  43    -0.091633056958468
  44     -0.15212985224471
  45      0.12395697903051
  46    0.0094242922362741
  47    0.0012302090161784
  48    -0.00011676271821294
  49     -0.15227010652011
  50      0.12400826932189
  51     0.009385644561718
  52    4.6446344765402e-05
  53    0.0016492711630407
  54      -0.1539116123202
  55      0.12359479503604
  56    0.0088860867343552
  57    -0.00090815046769728
  58    -0.00020565380012003
 Sym= A
 Ene=              10
 Spin= Alpha
 Occup=    0.00000
   1     0.062256843103396
   2     0.072665240732579
   3       -1.203610162998
   4      -0.1283293514321
   5    0.0015676628996135
   6     0.028050751443028
   7     -0.43484264977001
   8    -0.097565150768977
   9     -0.90638881256912
  10     0.032806842834443
  11      -0.1158183143279
  12     0.015294269119483
  13    -0.015899660125357
  14    -0.0025884257637769
  15     -0.40691439076276
  16     -0.71683396980491
  17       3.4069865879146
  18      0.16781186687785
  19    -0.0030417204801174
  20     0.081285882941121
  21    -0.099520357960236
  22      0.10367184756564
  23        2.719110066656
  24      0.33786967567368
  25      0.29397799389275
  26    -0.0083429027489565
  27      0.12155697054555
  28    0.0049817819404819
  29      -1.6724066046032
  30      -1.8893220348187
  31      0.25611700511069
  32    -0.012158867931029
  33      0.46905707311338
  34    -0.026586883577812
  35      0.35577832797699
  36    -0.040696151647493
  37      0.11593440219841
  38     -0.22494076658213
  39    -0.074809823327935
  40       0.2565626431083
  41    -0.034135612468889
  42     -0.11037527337019
  43     -0.24158295486493
  44     0.047716314904606
  45      -0.1359052800818
  46      0.01580779252605
  47    -0.0060348048392307
  48     0.063243394653751
  49     0.062057579826675
  50     -0.10013945368073
  51     0.049024446297767
  52     0.011381902699545
  53     0.061413468760959
  54      0.10779333564724
  55      0.40555675759772
  56    -0.047491685199787
  57    -0.0064032898276789
  58     0.024392414294518
 Sym= A
 Ene=              11
 Spin= Alpha
 Occup=    0.00000
   1     -0.40692263070533
   2     -0.71687913330304
   3       3.4067790736109
   4     -0.16790804676055
   5     0.016655826051081
   6     0.080050149165143
   7     0.099584766922548
   8      0.37149645789173
   9       2.6964787096529
  10      0.31976575939664
  11     -0.29039636744306
  12      0.13287906048613
  13      0.10982122239687
  14    -0.046154508686318
  15     0.062259649154127
  16     0.072652076644512
  17      -1.2033956752354
  18      0.12817007355056
  19     0.003458215526148
  20     0.028058512269664
  21      0.43455331331207
  22    -0.061566687656322
  23      -0.9094096496534
  24     0.036883360329349
  25       0.1148418642776
  26    -0.0081455592457824
  27     -0.01304432942763
  28     0.017721745911737
  29      0.10732826492296
  30      0.40549324305633
  31     0.047658151572869
  32     0.010741644378085
  33      0.02313054369865
  34     0.062714384163265
  35     -0.10019870250171
  36    -0.049264964031983
  37    -0.00031027465571188
  38     0.062660867173391
  39     0.047752327210198
  40     -0.13576632653077
  41    -0.015811680550048
  42     0.017065996698101
  43      0.06146356407421
  44    -0.074733680970425
  45      0.25748643680765
  46     0.033864213825789
  47     0.066239558598119
  48     -0.25585924960284
  49    -0.025240091315144
  50      0.35516622986848
  51     0.041208681319178
  52     -0.15357533736889
  53     -0.20070264840364
  54      -1.6742421148045
  55       -1.889473223098
  56       -0.257136071272
  57     0.092535745896182
  58      0.46064176756205
 Sym= A
 Ene=              12
 Spin= Alpha
 Occup=    0.00000
   1      0.40686710106396
   2      0.71674141313697
   3      -3.4066424445538
   4      0.16782225183078
   5     0.077432005590265
   6     0.025035678175024
   7    -0.099256343215194
   8       2.5204940286607
   9        1.025336951507
  10      0.20713048547185
  11     -0.10500978189266
  12     -0.22098131255251
  13      0.19313069322559
  14     -0.27467207182192
  15    -0.062224314848081
  16    -0.072611315717702
  17       1.2032071865008
  18     -0.12829789173239
  19     0.025818824171117
  20     0.011033413097407
  21     -0.43465848827656
  22     -0.81857432067926
  23     -0.40093359960077
  24    -0.010041964042027
  25      0.04194931527304
  26    -0.024883811507793
  27     0.029022550861799
  28      0.10798296727845
  29    -0.047742991973815
  30      0.13563501171239
  31     0.015757144934421
  32     0.061504074641669
  33      0.01593488313514
  34     -0.10774924056424
  35     -0.40548849058323
  36    -0.047490741081926
  37     0.025138189217883
  38    0.0022711319117322
  39    -0.062013400072834
  40      0.10034315332633
  41     0.049057049892076
  42     0.053811928356933
  43     0.031644365881902
  44       1.6724858599095
  45       1.8893681824956
  46      0.25611677533158
  47      0.44488139063769
  48      0.14926261008232
  49     0.074066037892891
  50     -0.25753413481162
  51    -0.034274563015059
  52     -0.18906173323843
  53     -0.18635839708296
  54     0.027249736380354
  55     -0.35480474088526
  56    -0.040605024453668
  57     -0.25118251642157
  58     0.031876287596066
 Sym= A
 Ene=              13
 Spin= Alpha
 Occup=    0.00000
   1     -0.27532081340863
   2     -0.52722372296227
   3       2.0824927705401
   4       -0.348627099863
   5    -0.0001040090204874
   6    6.830498467697e-05
   7       3.6699939303432
   8    -0.00074540614526925
   9    -0.00023288864745734
  10      -0.1336950419627
  11    0.00037739653038165
  12    0.0010098289106297
  13      0.23279134483166
  14    0.00027759044598991
  15      0.16395855882879
  16      0.21017413260638
  17       -3.623524838727
  18      0.32300250470854
  19    0.00025704946765059
  20    0.00016461226041137
  21       1.7663237573188
  22    0.00075362034840234
  23    0.00039248234543787
  24     0.086235385296563
  25    0.00029891074668481
  26    -0.0017534544435916
  27     -0.14693352917712
  28    0.00028499912090935
  29      0.15210536237634
  30     -0.12398852942122
  31    0.0094383558480092
  32    -0.00053373571150293
  33    0.0011174603766847
  34      0.15390696603175
  35     -0.12359794063714
  36    0.0088963498177537
  37    0.00011420101481649
  38    -0.00091676524491942
  39      0.15228286377385
  40     -0.12399525078733
  41    0.0093823976362498
  42    0.0015303548011443
  43    0.0006129800119779
  44      0.16679156612039
  45      0.50484762951632
  46       -0.297654426152
  47      0.17230291184217
  48     0.062994215590923
  49      0.16769405527575
  50      0.50532450835123
  51     -0.29746034398221
  52     -0.14059239927286
  53      0.11839899536772
  54      0.16710204815344
  55       0.5054148940967
  56     -0.29788594721091
  57    -0.032050423367698
  58     -0.18078231657276
 Sym= A
 Ene=              14
 Spin= Alpha
 Occup=    0.00000
   1     0.062281636893836
   2     0.072694053431694
   3      -1.2035525325644
   4      -0.1281773740431
   5    -0.025214705028476
   6    -0.012815442330363
   7     -0.43462590731569
   8      0.83399940356272
   9      0.36818192677616
  10    -0.0065023317557635
  11     0.055850515397976
  12      0.01009521013984
  13    -0.038102048790893
  14      0.10190906658756
  15     -0.40693488719779
  16     -0.71690780340919
  17       3.4068481251164
  18      0.16786966363884
  19    -0.069430244188271
  20    -0.043091430921627
  21    -0.099652649389179
  22      -2.4079309294858
  23      -1.2694247394871
  24     -0.11367289499025
  25      -0.1424828480231
  26      0.31514498800396
  27     -0.14040461251341
  28     -0.25719040439919
  29    -0.075395102957559
  30      0.25652815704322
  31    -0.033764042919448
  32      0.26322136044943
  33      0.02540414415362
  34      -1.6741706026372
  35      -1.8894755049439
  36      0.25712709070653
  37     -0.40103885076269
  38     -0.24473331339844
  39    -0.024584359203227
  40      0.35615454023784
  41    -0.041302999390191
  42      0.13588336863722
  43      0.21291002846819
  44      0.10737271676043
  45      0.40557793054713
  46    -0.047655375688462
  47    -0.018085829759107
  48    -0.017943547859438
  49     0.047689162069143
  50     -0.13607779930423
  51     0.015854381182457
  52    -0.051923111100363
  53    -0.037033106072174
  54     0.062765283097092
  55    -0.099964178243062
  56      0.04923829686928
  57    -0.059032951356548
  58    -0.021109748335757
 Sym= A
 Ene=              15
 Spin= Alpha
 Occup=    0.00000
   1     0.062256230703986
   2     0.072641306333921
   3      -1.2040284200568
   4     -0.12835784791204
   5     0.023685236053971
   6    -0.015548184239916
   7     -0.43491654631188
   8     -0.73558064156505
   9      0.53779634445149
  10     0.017099532390255
  11     0.060343650238309
  12     -0.02648776963555
  13    -0.024619348316631
  14    -0.099247584623085
  15     -0.40696844934764
  16     -0.71694340148726
  17       3.4071253940535
  18      0.16792189290125
  19     0.071436353727015
  20    -0.038661675853221
  21    -0.099864231780139
  22       2.3020895594367
  23      -1.4504559277121
  24     -0.13153489639334
  25     -0.15154390393368
  26     -0.29868812686567
  27     -0.14950008458483
  28      0.25181819683611
  29    -0.024408586914601
  30      0.35609349803111
  31      -0.0415478508289