[Molden Format]
made by pyscf v[2.0.1]
[Atoms] (AU)
C   1   6     0.00000000000000     0.00000074247339     1.44097565175625
C   2   6     0.00000000000000    -0.00000074247339    -1.44097565175625
H   3   1     1.66683168170926    -0.96234483305629     2.18968435542697
H   4   1    -1.66683168170926    -0.96234483305629     2.18968435542697
H   5   1     1.66683168170926     0.96234483305629    -2.18968435542697
H   6   1    -1.66683168170926     0.96234483305629    -2.18968435542697
H   7   1     0.00000000000000     1.92469254473238     2.18968322537074
H   8   1     0.00000000000000    -1.92469254473238    -2.18968322537074
[GTO]
1 0
 s    8 1.00
                  6665  0.00069158396281299
                  1000  0.0053257961529341
                   228   0.027060721042034
                 64.71    0.10165684614077
                 21.06     0.2745748236174
                 7.495    0.44829431892377
                 2.797    0.28490261071525
                0.5215   0.015194859206082
 s    8 1.00
                  6665  -0.00029326965268655
                  1000  -0.0023180354739745
                   228  -0.011499786038565
                 64.71  -0.046826727009787
                 21.06   -0.12846616875047
                 7.495   -0.30126627246289
                 2.797   -0.25563070233011
                0.5215      1.093793361012
 s    1 1.00
                0.1596                   1
 p    3 1.00
                 9.439   0.056979251590039
                 2.002    0.31320721150073
                0.5456    0.76037674173753
 p    1 1.00
                0.1517                   1
 d    1 1.00
                  0.55                   1

2 0
 s    8 1.00
                  6665  0.00069158396281299
                  1000  0.0053257961529341
                   228   0.027060721042034
                 64.71    0.10165684614077
                 21.06     0.2745748236174
                 7.495    0.44829431892377
                 2.797    0.28490261071525
                0.5215   0.015194859206082
 s    8 1.00
                  6665  -0.00029326965268655
                  1000  -0.0023180354739745
                   228  -0.011499786038565
                 64.71  -0.046826727009787
                 21.06   -0.12846616875047
                 7.495   -0.30126627246289
                 2.797   -0.25563070233011
                0.5215      1.093793361012
 s    1 1.00
                0.1596                   1
 p    3 1.00
                 9.439   0.056979251590039
                 2.002    0.31320721150073
                0.5456    0.76037674173753
 p    1 1.00
                0.1517                   1
 d    1 1.00
                  0.55                   1

3 0
 s    3 1.00
                 13.01   0.033498726389998
                 1.962    0.23480080117413
                0.4446     0.8136829578829
 s    1 1.00
                 0.122                   1
 p    1 1.00
                 0.727                   1

4 0
 s    3 1.00
                 13.01   0.033498726389998
                 1.962    0.23480080117413
                0.4446     0.8136829578829
 s    1 1.00
                 0.122                   1
 p    1 1.00
                 0.727                   1

5 0
 s    3 1.00
                 13.01   0.033498726389998
                 1.962    0.23480080117413
                0.4446     0.8136829578829
 s    1 1.00
                 0.122                   1
 p    1 1.00
                 0.727                   1

6 0
 s    3 1.00
                 13.01   0.033498726389998
                 1.962    0.23480080117413
                0.4446     0.8136829578829
 s    1 1.00
                 0.122                   1
 p    1 1.00
                 0.727                   1

7 0
 s    3 1.00
                 13.01   0.033498726389998
                 1.962    0.23480080117413
                0.4446     0.8136829578829
 s    1 1.00
                 0.122                   1
 p    1 1.00
                 0.727                   1

8 0
 s    3 1.00
                 13.01   0.033498726389998
                 1.962    0.23480080117413
                0.4446     0.8136829578829
 s    1 1.00
                 0.122                   1
 p    1 1.00
                 0.727                   1

[5d]
[7f]
[9g]

[MO]
 Sym= A
 Ene=               0
 Spin= Alpha
 Occup=    1.00000
   1       1.0023211072473
   2     0.005610361621244
   3    -0.0090343531390676
   4    -4.2402536766433e-07
   5    -3.8028828599548e-07
   6    0.00022657992796069
   7    -1.9653974809855e-07
   8    -1.7579270271151e-07
   9    0.00080619566390444
  10    -0.0001929229488486
  11    -1.4752899562049e-08
  12    -1.4091481939723e-08
  13    1.9741304366095e-08
  14    2.1949046626564e-08
  15    -0.00012581700038008
  16    0.00017124896040016
  17    0.0023591350453464
  18    -5.2191681878169e-08
  19    -3.1206646234985e-08
  20    0.00031418953215553
  21    -1.6049842865561e-08
  22    -6.6383079468002e-09
  23    0.0011997520206137
  24    -0.00019256635638621
  25    -1.8536600806588e-08
  26    -1.7451366447662e-08
  27    2.4334671673453e-09
  28    1.8155122625296e-09
  29    0.00046811854737547
  30    0.0012878464861544
  31    0.00032641199674408
  32    -0.00018847334931367
  33    9.1744356307905e-05
  34    0.00046875099760694
  35    0.0012881153322514
  36    -0.00032639126564029
  37    -0.00018844627754317
  38    9.1722856300857e-05
  39    -9.1301581714751e-05
  40    0.00011890939725535
  41    -1.7820820202693e-05
  42    -1.0288624549093e-05
  43    5.4467627899878e-05
  44    -9.1277143460936e-05
  45    0.00011886178587391
  46    1.7826153233218e-05
  47    -1.0292673237205e-05
  48    5.4467941848982e-05
  49    0.0004679416469508
  50    0.0012877693311407
  51    -1.3079292799724e-08
  52    0.00037692647172528
  53    9.1750156871906e-05
  54    -9.1290569553075e-05
  55    0.00011883971106469
  56    -8.3975089974916e-10
  57    2.0585146363974e-05
  58    5.4467239209725e-05
 Sym= A
 Ene=               1
 Spin= Alpha
 Occup=    1.00000
   1    -0.00012582342144461
   2    0.00017144898786458
   3    0.0023592665544383
   4    1.8532066283675e-07
   5    -1.3198213201584e-08
   6    -0.00031429533550136
   7    8.4019144749078e-08
   8    -3.7333797394378e-09
   9    -0.0011997995933612
  10    -0.00019255694711493
  11    1.7512413815616e-09
  12    6.5280714932047e-09
  13    -9.3302461481026e-10
  14    -8.5504781772045e-09
  15       1.0023211041348
  16      0.00561039461506
  17    -0.0090343186148821
  18    1.1917585253689e-07
  19    -1.4889804847914e-07
  20    -0.00022639244731273
  21    5.1912127445242e-08
  22    -6.9894283476816e-08
  23    -0.00080610911832741
  24    -0.00019290374721965
  25    4.1705665121112e-09
  26    5.330574709069e-09
  27    -7.8754992518375e-09
  28    4.3230445608713e-09
  29    -9.1093204731576e-05
  30    0.0001189115746645
  31    -1.7838281872365e-05
  32    1.0301984733211e-05
  33    -5.447819294487e-05
  34    -9.1357293346049e-05
  35    0.00011881269813168
  36    1.7828579509817e-05
  37    1.028998764667e-05
  38    -5.4469334572216e-05
  39    0.00046824029575792
  40    0.0012878824969117
  41    0.00032641783911827
  42    0.00018845086913936
  43    -9.1735917477627e-05
  44    0.00046808436527614
  45    0.0012878399144173
  46    -0.00032642480234582
  47    0.00018845877069199
  48    -9.1741007101382e-05
  49    -9.1225808267087e-05
  50    0.00011887952459819
  51    5.5386018076893e-09
  52    -2.0590565718362e-05
  53    -5.447380143227e-05
  54    0.00046835505665722
  55    0.0012879436674222
  56    3.3613322081771e-09
  57    -0.00037690711148038
  58    -9.1731675280919e-05
 Sym= A
 Ene=               2
 Spin= Alpha
 Occup=    1.00000
   1    -0.0024889703574573
   2    -0.020311338589891
   3    -0.012742752254904
   4    -0.0011602760346217
   5    0.00066907205560513
   6       0.0247245703866
   7    0.0053168301186061
   8    -0.0030699715448803
   9     0.013890066541038
  10    0.0045596258484706
  11     0.014595303093577
  12    -0.0084264324587259
  13    0.0018407497851861
  14    -0.0031882589105179
  15    -0.013919963203733
  16      0.18302971397897
  17      0.10543081834828
  18     -0.30044408682758
  19      0.17345735875246
  20     -0.12417112562116
  21     -0.13995700738855
  22     0.080802300653665
  23    -0.061328707300253
  24    -0.007363599979031
  25     0.012198957047839
  26    -0.0070429446920977
  27    0.0092024753139606
  28    -0.015939507034983
  29     0.024100849683801
  30      0.04339063983082
  31    0.0011850320565476
  32    -0.00068419677212128
  33    0.00032488872197849
  34    -0.012574535672613
  35    -0.013907778762624
  36    0.00087176829871186
  37    -9.4858236799289e-05
  38    0.0019433136960629
  39    -0.019567956310633
  40    -0.037092380986064
  41    -0.011571877803903
  42    0.0040961525449033
  43    -0.002590101460929
  44      0.43313712262959
  45      0.16032146577467
  46     0.026022375342681
  47    -0.015024147964361
  48     0.012843839784692
  49      -0.0125751600459
  50    -0.013907564527898
  51    0.00051801878002787
  52    -0.00070746757892024
  53    0.0019433309174352
  54    -0.019562743545875
  55    -0.037090199975087
  56    -0.0093334199127985
  57    0.0079737250313616
  58    -0.0025899257169642
 Sym= A
 Ene=               3
 Spin= Alpha
 Occup=    1.00000
   1    -0.013921481768022
   2      0.18302972599867
   3      0.10543076818653
   4     -0.30043990746386
   5     -0.17346367391174
   6      0.12417228790163
   7     -0.13995508436503
   8    -0.080805218159952
   9     0.061329261036262
  10    -0.0073636751053113
  11      -0.0121988470124
  12    -0.0070431403405033
  13    0.0092027968663811
  14     0.015939298547723
  15    -0.0024888242651558
  16    -0.020311356276634
  17    -0.012742843817981
  18    -0.0011590357715691
  19    -0.00067034327642609
  20    -0.024725714620515
  21    0.0053173264881664
  22    0.0030695023909238
  23    -0.013890614567246
  24    0.0045595529925355
  25    -0.014595149997417
  26    -0.008426688383654
  27    0.0018407506003326
  28     0.003188279554576
  29    -0.019561792309517
  30    -0.037089832149195
  31    -0.011572217563127
  32    -0.0040960766123924
  33    0.0025899223088977
  34      0.43313714577701
  35      0.16032150502763
  36     0.026022505933583
  37     0.015023955821258
  38    -0.012843811078048
  39     0.024101565704842
  40      0.04339091803134
  41    0.0011850041326955
  42    0.00068413499641983
  43    -0.00032489461391211
  44    -0.012575154570583
  45    -0.013907508757836
  46    0.00087170876588535
  47    9.4882554390302e-05
  48    -0.0019433599848211
  49    -0.019567752624951
  50    -0.037092290851125
  51    -0.0093332923366317
  52    -0.0079734906590968
  53    0.0025901254125738
  54    -0.012574151555606
  55     -0.01390762314227
  56    0.0005180496106679
  57    0.00070758035298892
  58    -0.0019433309761508
 Sym= A
 Ene=               4
 Spin= Alpha
 Occup=    1.00000
   1    -0.0024889647083466
   2    -0.020312067457968
   3    -0.012743488406282
   4    2.9975372681385e-06
   5    -0.0013401532980186
   6     0.024728742713622
   7    1.3232102203839e-06
   8    0.0061391088179261
   9      0.01389202438703
  10     0.004559287975669
  11    -6.1139297331077e-08
  12     0.016853057470631
  13    -0.003681450067867
  14    -1.1844643042392e-07
  15    -0.013920555725964
  16      0.18302849790272
  17      0.10542982796451
  18    3.7633447501321e-06
  19      -0.3469203271348
  20     -0.12417481565064
  21    1.6949369396869e-06
  22      -0.1616071937138
  23    -0.061330432155725
  24    -0.0073639003651317
  25    -7.4218610190762e-09
  26     0.014085992857813
  27     -0.01840521866785
  28    1.6739056149392e-07
  29    -0.012571449464927
  30    -0.013906326277375
  31    -0.00035388521434151
  32    0.00080250619143481
  33    0.0019433169438269
  34    -0.012575486294124
  35    -0.013907570839749
  36    0.00035371605379789
  37    0.0008023089904392
  38     0.001943449974051
  39    -0.019561729592505
  40    -0.037089696808824
  41    -0.002238809202074
  42    -0.012069863378236
  43    -0.0025899916569381
  44    -0.019567018648546
  45    -0.037091593129013
  46    0.0022386083285343
  47     -0.01206961876021
  48    -0.0025901683207613
  49     0.024101104425027
  50     0.043390788324047
  51    8.6200817665518e-08
  52    0.0013683169394401
  53    0.0003249876793804
  54      0.43313718487574
  55      0.16032159162265
  56    1.1140868150234e-07
  57     0.030048140608522
  58     0.012843717708633
 Sym= A
 Ene=               5
 Spin= Alpha
 Occup=    1.00000
   1    -0.013920005569886
   2      0.18302890574755
   3      0.10543017780308
   4       0.3004443033414
   5     -0.17345661296995
   6      0.12417309740528
   7      0.13995712775785
   8    -0.080802021466603
   9     0.061329626119154
  10    -0.0073637673906772
  11     0.012199014610553
  12    -0.0070430849597335
  13    0.0092024736004815
  14    -0.015939529346352
  15    -0.0024893700938265
  16     -0.02031234647345
  17     -0.01274350348002
  18    0.0011592761535802
  19    -0.00066556978542798
  20    -0.024726445309365
  21    -0.0053173001933782
  22    0.0030715887446141
  23    -0.013890938511998
  24    0.0045594700265661
  25     0.014595354432178
  26    -0.0084265389740397
  27    0.0018409276710394
  28    -0.003188314341132
  29      0.43313739676824
  30      0.16032190440427
  31    -0.026022357727993
  32     0.015024159457864
  33    -0.012843797731932
  34    -0.019568136395305
  35    -0.037092278013372
  36     0.011571856440524
  37    -0.0040961531133219
  38    0.0025901602253467
  39    -0.012573692693661
  40    -0.013907311344334
  41    -0.0008718515349158
  42    9.4935797560327e-05
  43    -0.0019433380231072
  44     0.024103227454079
  45     0.043391806832589
  46    -0.0011849021966853
  47    0.00068421107844613
  48    -0.0003248604538556
  49    -0.019562110919972
  50     -0.03709009045719
  51    0.0093334284843872
  52    -0.007973778418575
  53    0.0025899598736155
  54    -0.012578038735828
  55    -0.013908617706511
  56    -0.00051805024815711
  57    0.00070730983464904
  58    -0.0019434812142112
 Sym= A
 Ene=               6
 Spin= Alpha
 Occup=    1.00000
   1    -0.0024887643070017
   2    -0.020312125375781
   3    -0.012743399414447
   4    0.0011580059964087
   5    0.00067006223433309
   6     0.024726800853624
   7    -0.0053178104890389
   8    -0.0030696392538943
   9     0.013891109440741
  10    0.0045594424141481
  11    -0.014595202550802
  12    -0.0084267146541624
  13    0.0018407688084839
  14    0.0031883365713877
  15    -0.013920309760527
  16       0.1830287225518
  17      0.10543006044699
  18      0.30044012388257
  19      0.17346397771417
  20     -0.12417325720163
  21      0.13995520527284
  22     0.080805365183448
  23    -0.061329702045148
  24    -0.0073637715932424
  25    -0.012198906028173
  26    -0.0070431664301611
  27    0.0092028160367933
  28     0.015939321177402
  29    -0.012575841841752
  30    -0.013907705316384
  31    -0.00087167867664568
  32    -9.4927923700706e-05
  33    0.0019434133703731
  34     0.024102458271649
  35     0.043391440702819
  36    -0.0011849861605908
  37    -0.00068411520886366
  38    0.00032489386850991
  39      0.43313733142736
  40      0.16032181530593
  41    -0.026022486338315
  42    -0.015023939528647
  43     0.012843788657491
  44    -0.019562064562311
  45    -0.037089863242327
  46      0.01157219442284
  47     0.004096104909578
  48    -0.0025899616031883
  49    -0.012574449413153
  50    -0.013907671037621
  51    -0.00051808200750687
  52    -0.00070755257745514
  53    0.0019433712739862
  54    -0.019568223620653
  55    -0.037092371367407
  56    0.0093333009603945
  57    0.0079734432950537
  58    -0.0025901711506424
 Sym= A
 Ene=               7
 Spin= Alpha
 Occup=    1.00000
   1    -0.013919630943964
   2      0.18302894962351
   3      0.10543024705583
   4    -3.9043648478027e-06
   5      0.34692083638276
   6      0.12417262029814
   7    -1.8046767651586e-06
   8      0.16160747821915
   9      0.06132939900558
  10    -0.0073637325817758
  11    -1.232606626791e-07
  12     0.014086131728915
  13    -0.018405271917819
  14    1.9931117768856e-07
  15    -0.0024890939739035
  16    -0.020311392725798
  17     -0.01274292459268
  18    -7.3873505322533e-07
  19    0.0013377301099677
  20    -0.024726658627925
  21    -2.6806445587758e-07
  22    -0.0061402477313893
  23    -0.013891042498535
  24    0.0045594423515484
  25    -1.6015162077866e-07
  26     0.016853181134776
  27    -0.0036815842354664
  28    3.0099089057154e-09
  29    -0.019568077517597
  30    -0.037092365164538
  31    -0.0022385642781894
  32     0.012069608685274
  33    0.0025901490474751
  34    -0.019562287023122
  35    -0.037089939558625
  36    0.0022387568866384
  37     0.012069858401218
  38    0.0025899525203845
  39    -0.012575197723089
  40    -0.013907553104388
  41    -0.00035367442925575
  42    -0.00080240186471254
  43    -0.001943383038454
  44    -0.012574583577359
  45    -0.013907821679411
  46    0.00035373594522425
  47    -0.00080245557217425
  48    -0.0019433668802195
  49      0.43313730985627
  50      0.16032177989275
  51    -1.1995615997983e-07
  52    -0.030048113605504
  53     -0.01284378129946
  54     0.024102901150346
  55     0.043391515182834
  56    -1.5754038901195e-08
  57    -0.0013682378237206
  58    -0.00032486886832389
 Sym= A
 Ene=               8
 Spin= Alpha
 Occup=    1.00000
   1     0.011369202167388
   2     -0.19721301995267
   3     -0.14838950550767
   4    -8.8489208805696e-07
   5    -3.9209992882754e-08
   6      0.36690338166905
   7    -3.8017385367967e-07
   8    -6.9094001404676e-08
   9      0.17017330719759
  10    -0.031863676573083
  11    4.4162685691077e-08
  12    -1.4479238474586e-07
  13    3.4499747229138e-08
  14    2.9170266237614e-08
  15     0.011369702334994
  16     -0.19721366449251
  17     -0.14838988682196
  18    -1.6467815877399e-06
  19    2.0169061468891e-06
  20     -0.36690306546922
  21    -7.4999876625287e-07
  22    9.5196370815795e-07
  23     -0.17017315717066
  24    -0.031863638632118
  25    2.4047704059048e-08
  26    -1.2907884547917e-07
  27    1.1811285707199e-07
  28    -7.7863991943865e-08
  29     0.021779134547186
  30     0.037379818639542
  31    0.0012312988079565
  32    -0.00071091151058163
  33    0.0094451137675278
  34     0.021780257718265
  35     0.037380082493874
  36    -0.0012312453020193
  37    -0.00071085237622835
  38    0.0094450774888353
  39     0.021778880367051
  40     0.037379685348089
  41    0.0012312923304643
  42    0.00071098005491376
  43    -0.0094451219850445
  44     0.021781249358399
  45     0.037380597625748
  46    -0.0012312072737789
  47    0.00071087374612212
  48    -0.0094450422959888
  49     0.021779192782836
  50     0.037379454353499
  51    -2.4458887396899e-08
  52    0.0014217581723506
  53    0.0094451136026252
  54     0.021777198985196
  55     0.037378849593649
  56    -4.9537784086035e-08
  57    -0.0014218985243419
  58    -0.0094451785696734
 Sym= A
 Ene=               9
 Spin= Alpha
 Occup=    0.00000
   1      -1.0375054286752
   2      -2.0353242282557
   3       6.6803841846207
   4     0.022363317175125
   5     0.024717311913027
   6    -0.082274103285811
   7    -0.031340024417367
   8    -0.0086899025678418
   9     -0.45079791136916
  10     0.048975851808639
  11     0.030467698646947
  12     0.027266046025083
  13    -0.041207387941256
  14    -0.017275918729758
  15      0.10038992291692
  16      0.11258336501024
  17      -2.2230841489971
  18    0.0051317087616907
  19    0.0040884046786993
  20     -0.23208843861852
  21     0.017371586567651
  22     0.011669558256415
  23       -1.274310203556
  24    -0.096033901016267
  25    0.0073267851790769
  26    0.0049473107466896
  27    0.0043481767406014
  28    0.0025978409738094
  29     -0.64052815955434
  30     -0.88084469699786
  31     0.062605815844859
  32    -0.027571288360502
  33     0.019686869350609
  34     -0.61849976408871
  35     -0.90247191876831
  36    -0.044802380389191
  37    -0.020986738237874
  38     0.020127290557729
  39      0.11108027490595
  40    -0.048582911119168
  41    0.0058595204722597
  42     0.003890265044124
  43     0.044563938204248
  44       0.1178221322049
  45    -0.042635100826497
  46    -0.0071317633773021
  47    0.0036800873950748
  48     0.046457704625538
  49     -0.67010771750356
  50     -0.89138631177059
  51    0.0031994320809686
  52      0.08005935745048
  53     0.026729490515839
  54      0.12048038194348
  55    -0.041425803492194
  56    -0.00081819051124951
  57    -0.0074382680166163
  58     0.047789234027795
 Sym= A
 Ene=              10
 Spin= Alpha
 Occup=    0.00000
   1     0.099571851652136
   2      0.10255926940503
   3      -2.4355135819204
   4    0.0040253157367802
   5    -0.012117323435362
   6       0.2698704076918
   7     0.015494760735165
   8    -0.038537693617359
   9       1.4171087192933
  10     -0.11430411044258
  11    -0.0037727394215709
  12     0.016139081622106
  13    0.0090425008417003
  14    -0.0057999450334007
  15      -1.0500187360068
  16      -2.0583234284153
  17       6.7778596150617
  18     0.032517431943848
  19     -0.06180646755041
  20     0.046814700960682
  21    -0.024575938424573
  22     0.054642223454133
  23        0.737812729681
  24      0.12186470624322
  25    -0.021192544469122
  26     0.075359335322214
  27     -0.07567348115434
  28     0.055801059784872
  29      0.11140066983919
  30     -0.07523697075951
  31    0.0091564616500246
  32    -0.0042823958372801
  33    -0.044560608758334
  34      0.12087556595444
  35    -0.070715726013474
  36    -0.0084124952847404
  37    -0.0036830355121322
  38    -0.046472498346431
  39     -0.61853016303103
  40     -0.84206586426014
  41     0.054447943848316
  42     0.011550756229056
  43    -0.032603214613513
  44     -0.56913721747446
  45     -0.85558986988416
  46    -0.024871378228684
  47    0.0082015268724531
  48    -0.019782525852134
  49      0.13175450199567
  50    -0.060725313697031
  51    -0.00014708492331658
  52     0.010646418979332
  53    -0.050564781358681
  54     -0.67055605419262
  55     -0.82218529088986
  56     0.011887408474905
  57    -0.088237475246557
  58    -0.034372299399786
 Sym= A
 Ene=              11
 Spin= Alpha
 Occup=    0.00000
   1    0.00066761103286536
   2    -0.0015089941363769
   3    -0.084159106240609
   4    -0.0062921896700888
   5    -0.0025214761921291
   6     0.011971924456716
   7    -0.025149943033895
   8     -0.58766375410084
   9     0.056436415057872
  10    -0.0053135441971741
  11    0.0076636427214682
  12    -0.043013454393339
  13    -0.014447603933041
  14    0.0051928649731338
  15    -0.0054086106750159
  16    -0.0099635452804445
  17     0.044766500080457
  18    -0.037288183743117
  19     -0.33303434911819
  20    -0.017072471505571
  21     0.052518190905579
  22        2.913184204443
  23      0.11341596816707
  24     0.019207426663072
  25     0.031888440816571
  26     -0.80027237917654
  27      0.50038846821422
  28    -0.042114702253399
  29    -0.036693857825328
  30    0.0020086213617281
  31     0.037271100384911
  32     0.050427051658625
  33    -0.046085964276001
  34    -0.048012203504098
  35    -0.0050471567882064
  36    -0.036592660259136
  37     0.049578867200613
  38    -0.044285838231839
  39      -0.5195541719019
  40     -0.76919164292323
  41      0.19001261892038
  42     -0.11392076721276
  43    -0.030237989998096
  44     -0.55513716581229
  45     -0.73166667858092
  46     -0.21918305001171
  47     -0.10888982384005
  48    -0.036502707208939
  49     0.091019810956364
  50    -0.026732922802603
  51    0.0010739521056595
  52    -0.010985705130991
  53      0.08889756214275
  54       1.0950044122216
  55        1.558636935237
  56    -0.010228217756238
  57      0.25338034089203
  58     0.054079197423711
 Sym= A
 Ene=              12
 Spin= Alpha
 Occup=    0.00000
   1    -0.0075709735759105
   2    -0.014374464261579
   3     0.056328090126131
   4     -0.33549439118812
   5    -0.0075203217109308
   6        0.012495466419
   7        2.893358288444
   8     0.052829854636022
   9    -0.084588636498288
  10     0.013357675508158
  11      0.81995754172286
  12     0.022164171593106
  13    0.00036738431815126
  14     -0.46631985100048
  15    0.00092507184062486
  16    -0.00049271982814135
  17    -0.069288230705333
  18    0.00040624244453547
  19    0.00084378132107478
  20    -0.0092956307102701
  21        -0.57927862086
  22    -0.0093268682328718
  23    -0.045703650163891
  24    -0.0040477201189174
  25      0.04921081241657
  26    0.0027613953969341
  27    -0.00045135975577159
  28     0.012038533662991
  29     -0.91997622156671
  30      -1.2993850733335
  31      0.12001973367791
  32     -0.21326377189266
  33      0.04748507690427
  34      0.94310263312602
  35       1.3492425730273
  36      0.13396882102823
  37      0.20730704216543
  38    -0.039584112873603
  39     0.080081266439968
  40    -0.024234102473749
  41    0.0074590387031442
  42    -0.035153174703861
  43    -0.078103321858598
  44    -0.074298706836021
  45    0.0084053971310912
  46    0.0076970737840712
  47     0.037272082128475
  48     0.077263340849841
  49    -0.015598884116895
  50     -0.01706704466665
  51     -0.23723113010748
  52    0.0023075200922169
  53    0.0020229619736452
  54     9.05057204911e-05
  55    -0.0064703808881324
  56     0.070300182595752
  57    -0.0014103067713819
  58    0.0024308316891652
 Sym= A
 Ene=              13
 Spin= Alpha
 Occup=    0.00000
   1     0.033302506658345
   2    -0.008530030211082
   3      -2.4815228758148
   4    0.0014263038531461
   5    0.0062798321517097
   6      0.30501447643352
   7    0.0068036629139422
   8     0.038249013200986
   9       1.6704154318635
  10     -0.12553724339003
  11    -0.0018950547947645
  12    -0.0072265480810998
  13    -0.0034971312643656
  14    -0.00063055157366999
  15     -0.13095878390577
  16       -0.236694196532
  17       1.2019382116257
  18    0.0071783990584573
  19     0.039658756860023
  20     -0.57673576218067
  21    -0.018697443502534
  22     -0.12144810354494
  23       3.4425156672067
  24      0.41936614510305
  25    -0.0056795616480046
  26    -0.013351765827048
  27     0.015184135543503
  28    0.0026354978323438
  29      0.06522546600393
  30     -0.30287812898674
  31     0.024879211679061
  32    -0.017573032033096
  33    -0.014648273533722
  34     0.067576782557691
  35     -0.30133502919955
  36    -0.025308933254827
  37    -0.017270905105902
  38    -0.014633356275957
  39      0.19517749782621
  40      0.64134386788536
  41    -0.086029730328343
  42    -0.038213517444665
  43     -0.15413041503549
  44      0.19444998174342
  45      0.62614777194069
  46     0.089897433828941
  47    -0.038617790093431
  48     -0.15472773810208
  49     0.054773521370841
  50     -0.30758991060516
  51    -0.00047646603429019
  52     0.030219244245378
  53    -0.016426350124531
  54      0.17675941050256
  55      0.54548338125451
  56    0.0015843813950435
  57      0.10646955463859
  58     -0.15506785888162
 Sym= A
 Ene=              14
 Spin= Alpha
 Occup=    0.00000
   1    0.0083047599420932
   2     0.015648218989391
   3    -0.065478585278458
   4    0.0032584273864867
   5     -0.34368737471582
   6     -0.01848495088855
   7    -0.051753022722015
   8       2.9116878660646
   9       0.1099698292193
  10    -0.011225480459094
  11    -0.022444884130456
  12      0.79928878723723
  13     -0.47138232289556
  14     0.010164025844316
  15    -0.0016636522435021
  16    -0.00072351508232915
  17     0.086793154977911
  18    -0.00099898971397966
  19    -0.0028282156316763
  20    0.0098403034175914
  21    0.0083220727146596
  22     -0.58923483301264
  23     0.057519982513327
  24    0.0038978753626438
  25    -0.002518279097268
  26      0.04380466626366
  27     0.011836280611074
  28    -0.00052175070744219
  29      0.55407419394461
  30      0.77757123358673
  31     -0.20918901071295
  32     -0.11206128738022
  33    -0.032393980308805
  34      0.51447455984346
  35      0.72903046163369
  36       0.2015908027047
  37     -0.12184791617014
  38    -0.031517473500821
  39     0.041830325636117
  40    0.0023531396071654
  41    -0.037011000325542
  42     0.050305625053443
  43    -0.043495322452581
  44     0.043858436783291
  45    0.00054125421764756
  46     0.037056999386421
  47     0.048873456836718
  48    -0.046941770274537
  49      -1.0770281565166
  50      -1.5522865706577
  51    0.0046758872729088
  52      0.24698518704138
  53     0.048023185649176
  54    -0.093076597755752
  55     0.026402350768152
  56    -0.0012173947505725
  57    -0.011587976134236
  58      0.08837171506766
 Sym= A
 Ene=              15
 Spin= Alpha
 Occup=    0.00000
   1    0.0016408436309747
   2    0.0029203843286901
   3    -0.021967453711456
   4    -0.0096306762578948
   5    0.0040570025859936
   6    -0.00028482894947911
   7     -0.60991896477215
   8     0.018759141863559
   9     0.013261448117294
  10    0.00074116367285211
  11     -0.03201344399439
  12    -0.0051460129056309
  13    -0.0024331648284345
  14    -0.012271546911707
  15    -0.0073622452134903
  16    -0.014348186458552
  17     0.051504441858443
  18     -0.35761171038088
  19     0.022361932955802
  20    -0.0040842941789145
  21       2.9511492875575
  22    -0.048628195446325
  23     0.013630985774583
  24    -0.0071364338531106
  25     -0.75549404656272
  26    -0.017028269551499
  27     0.015175227630027
  28      0.49181926740414
  29     0.083872573769507
  30    -0.010488181663839
  31    0.0097804774334214