[Molden Format]
made by pyscf v[2.0.1]
[Atoms] (AU)
C   1   6     0.00000000000000     0.00000000000000     0.00000000000000
C   2   6     2.88195139270757     0.00000000000000     0.00000000000000
H   3   1     3.63065534584939     0.00000000000000     1.92469232395612
H   4   1     3.63065534584939    -1.66683244701491    -0.96234616197806
H   5   1     3.63065534584939     1.66683244701491    -0.96234616197806
H   6   1    -0.74870395314182    -1.89545192279507    -0.33421931462451
H   7   1    -0.74870395314182     1.23716837829778    -1.47439985948033
H   8   1    -0.74870395314182     0.65828354449729     1.80861917410484
[GTO]
1 0
 s    8 1.00
                  6665  0.00069158396281299
                  1000  0.0053257961529341
                   228   0.027060721042034
                 64.71    0.10165684614077
                 21.06     0.2745748236174
                 7.495    0.44829431892377
                 2.797    0.28490261071525
                0.5215   0.015194859206082
 s    8 1.00
                  6665  -0.00029326965268655
                  1000  -0.0023180354739745
                   228  -0.011499786038565
                 64.71  -0.046826727009787
                 21.06   -0.12846616875047
                 7.495   -0.30126627246289
                 2.797   -0.25563070233011
                0.5215      1.093793361012
 s    1 1.00
                0.1596                   1
 p    3 1.00
                 9.439   0.056979251590039
                 2.002    0.31320721150073
                0.5456    0.76037674173753
 p    1 1.00
                0.1517                   1
 d    1 1.00
                  0.55                   1

2 0
 s    8 1.00
                  6665  0.00069158396281299
                  1000  0.0053257961529341
                   228   0.027060721042034
                 64.71    0.10165684614077
                 21.06     0.2745748236174
                 7.495    0.44829431892377
                 2.797    0.28490261071525
                0.5215   0.015194859206082
 s    8 1.00
                  6665  -0.00029326965268655
                  1000  -0.0023180354739745
                   228  -0.011499786038565
                 64.71  -0.046826727009787
                 21.06   -0.12846616875047
                 7.495   -0.30126627246289
                 2.797   -0.25563070233011
                0.5215      1.093793361012
 s    1 1.00
                0.1596                   1
 p    3 1.00
                 9.439   0.056979251590039
                 2.002    0.31320721150073
                0.5456    0.76037674173753
 p    1 1.00
                0.1517                   1
 d    1 1.00
                  0.55                   1

3 0
 s    3 1.00
                 13.01   0.033498726389998
                 1.962    0.23480080117413
                0.4446     0.8136829578829
 s    1 1.00
                 0.122                   1
 p    1 1.00
                 0.727                   1

4 0
 s    3 1.00
                 13.01   0.033498726389998
                 1.962    0.23480080117413
                0.4446     0.8136829578829
 s    1 1.00
                 0.122                   1
 p    1 1.00
                 0.727                   1

5 0
 s    3 1.00
                 13.01   0.033498726389998
                 1.962    0.23480080117413
                0.4446     0.8136829578829
 s    1 1.00
                 0.122                   1
 p    1 1.00
                 0.727                   1

6 0
 s    3 1.00
                 13.01   0.033498726389998
                 1.962    0.23480080117413
                0.4446     0.8136829578829
 s    1 1.00
                 0.122                   1
 p    1 1.00
                 0.727                   1

7 0
 s    3 1.00
                 13.01   0.033498726389998
                 1.962    0.23480080117413
                0.4446     0.8136829578829
 s    1 1.00
                 0.122                   1
 p    1 1.00
                 0.727                   1

8 0
 s    3 1.00
                 13.01   0.033498726389998
                 1.962    0.23480080117413
                0.4446     0.8136829578829
 s    1 1.00
                 0.122                   1
 p    1 1.00
                 0.727                   1

[5d]
[7f]
[9g]

[MO]
 Sym= A
 Ene=               0
 Spin= Alpha
 Occup=    1.00000
   1       1.0026308455237
   2    -0.00039788566296018
   3    -0.012753253661081
   4    0.0009722100244234
   5    7.8645870479734e-08
   6    1.6707527764007e-07
   7    -0.00016455333257272
   8    3.8765272399559e-08
   9    7.9759132866351e-08
  10    8.952547414726e-05
  11    -8.2160113822935e-09
  12    5.8594600377852e-09
  13    -0.00015504713766487
  14    -5.1541840886481e-09
  15    -2.3910774309193e-05
  16    -0.00046142542435515
  17    0.0019552934609681
  18    0.0011454245051484
  19    -4.2278759168667e-08
  20    -3.2824856634092e-08
  21    -0.00058229733197483
  22    -2.1355448951574e-08
  23    -2.2019698913137e-08
  24    0.00025739127069911
  25    -9.2358906826164e-09
  26    3.200544101736e-09
  27    -0.0004458183467165
  28    -5.5106250553237e-09
  29    1.8848419380428e-05
  30    0.00017162257924013
  31    -2.7627640709596e-05
  32    -4.9247894967601e-06
  33    -1.0664898915221e-05
  34    1.8945346159064e-05
  35    0.00017168663002832
  36    -2.7630391413493e-05
  37    1.1700270248319e-05
  38    1.0698353320187e-06
  39    1.8871473863646e-05
  40    0.00017164327352794
  41    -2.7627748405164e-05
  42    -6.7753833964171e-06
  43    9.5947675032397e-06
  44    -0.0029102337691842
  45    0.00074180067571348
  46    -0.0002151126169908
  47    -0.00078003178072918
  48    -0.00013706874208689
  49    -0.0029102057712761
  50    0.00074181593020744
  51    -0.00021511187990576
  52    0.00050872780721224
  53    -0.0006069856246912
  54    -0.002909975223867
  55    0.00074191949357738
  56    -0.00021510405393892
  57     0.000271302809803
  58    0.00074405166180598
 Sym= A
 Ene=               1
 Spin= Alpha
 Occup=    1.00000
   1    -2.3907630092997e-05
   2    -0.00046162292433234
   3    0.0019551599118865
   4    -0.0011455745545748
   5    -2.6701163819079e-08
   6    8.0872071289035e-08
   7    0.00058222849817748
   8    -1.0792890055398e-08
   9    4.5129197831889e-08
  10    0.00025739981440034
  11    -1.2702761671201e-08
  12    5.2890316436614e-09
  13    -0.00044582886488711
  14    8.7298739535425e-10
  15       1.0026308487269
  16    -0.00039795076658203
  17    -0.012753309140893
  18    -0.00097199527644622
  19    -5.8222520914938e-09
  20    -1.9886819955428e-07
  21    0.0001646520400235
  22    -1.2910138211269e-09
  23    -9.6527154379908e-08
  24    8.9520253898859e-05
  25    -1.1776936076939e-08
  26    8.382428219007e-10
  27    -0.00015507473907671
  28    1.0337676873934e-09
  29    -0.0029102797672711
  30    0.00074178590169131
  31    0.00021511962434088
  32    -4.6019233747565e-07
  33    0.00079198478400475
  34    -0.0029100088459992
  35    0.0007419109662972
  36    0.00021511049506115
  37    -0.00068563527935251
  38    -0.00039638913414234
  39    -0.0029100152201418
  40    0.00074191066144288
  41    0.00021511099582876
  42    0.00068609564945757
  43    -0.00039559265135262
  44    1.8848098396836e-05
  45    0.0001716611689928
  46    2.7622569738524e-05
  47    9.6411737500158e-06
  48    6.7021409191528e-06
  49    1.8760247269973e-05
  50    0.0001716134230168
  51    2.7619353018688e-05
  52    -1.061961316531e-05
  53    4.9982968493234e-06
  54    1.8910837364885e-05
  55    0.00017170236228427
  56    2.7623940276767e-05
  57    9.7871590290365e-07
  58    -1.1700705556522e-05
 Sym= A
 Ene=               2
 Spin= Alpha
 Occup=    1.00000
   1    -0.0051266101677541
   2       0.1829897359689
   3      0.10651710656426
   4     -0.12362365327635
   5      -0.3422608572943
   6    -0.059349569921357
   7    -0.060451445019723
   8     -0.16156818762841
   9    -0.028336002084591
  10    -0.010869650579495
  11    0.0023352651116923
  12    0.0057046903450088
  13    -0.014909767527043
  14     0.013613247650637
  15    -0.0024286100312949
  16    -0.020146280969884
  17    -0.013305751507853
  18     0.024350549327247
  19    -0.00010752586409063
  20    0.00072478814695256
  21     0.014618268647058
  22     0.011518595775027
  23    0.0053219833920043
  24    -0.0034639621647738
  25    0.0026809289509602
  26    -0.0013230776870353
  27    0.0033853374876492
  28     0.016341124886441
  29    0.0038734191829386
  30    0.0082624433983462
  31    0.0016627199173849
  32    0.00039408153503118
  33    3.8655484019503e-05
  34     -0.02303067317406
  35    -0.026455251181015
  36    0.0012887134227492
  37    0.00080154625627693
  38    0.00029059515958029
  39     0.018578973496091
  40     0.032722038496248
  41    0.00077925628507459
  42    0.00084600964868641
  43    -0.00040155177118503
  44      0.43303662059814
  45       0.1600168438221
  46     0.012703710023016
  47     0.029723532455397
  48    0.0053759411095958
  49    -0.019855946944677
  50    -0.037025967777743
  51    -0.0025661830549621
  52    -0.012159851800254
  53    -4.9660168335557e-05
  54    -0.019438017115699
  55    -0.036417908698678
  56    -0.0025843053012938
  57    -0.011550654077996
  58    -0.0042586224603882
 Sym= A
 Ene=               3
 Spin= Alpha
 Occup=    1.00000
   1    -0.0024286829498318
   2    -0.020146190129491
   3    -0.013305574578973
   4    -0.024348768431693
   5    -0.00073309782019116
   6    -2.0155086070251e-05
   7    -0.014617434392148
   8    -0.0032411251535396
   9    -0.012267869528601
  10    -0.0016600624431581
  11     0.016558402445246
  12    -0.0016903621080674
  13    0.0044269931171031
  14    -0.00019755288145397
  15    -0.0051265110397704
  16      0.18299071201571
  17      0.10651780294257
  18      0.12362230458962
  19    -0.00098866314907489
  20      0.34736692240989
  21     0.060450810626433
  22    -0.00015218820844364
  23      0.16403403472771
  24     0.019155735534137
  25     0.013811947742459
  26    -0.00040845303517629
  27     0.002425509847143
  28    -6.4240748892487e-05
  29      0.43303652965064
  30      0.16001666297812
  31    -0.012703746850205
  32    -0.00013294308727527
  33    -0.030205498891894
  34    -0.019435242351042
  35    -0.036416891526614
  36    0.0025841694984424
  37    0.0021882868762023
  38     0.012114798784132
  39    -0.019858518771236
  40    -0.037027195226737
  41    0.0025662292653974
  42    -0.0020625636769258
  43     0.011983630949451
  44    0.0038732162203366
  45    0.0082621055566919
  46    -0.0016626773050378
  47    3.0355710640759e-05
  48    -0.00039480982938668
  49     0.018578350382288
  50      0.03272189354624
  51    -0.00077924104123807
  52    0.0005423886934896
  53    -0.00076348742919395
  54     -0.02303145180717
  55    -0.026455473764834
  56    -0.0012886938971147
  57    -0.00014698311780988
  58    -0.00083975958748194
 Sym= A
 Ene=               4
 Spin= Alpha
 Occup=    1.00000
   1    -0.0051266284751552
   2      0.18298925138128
   3      0.10651658633182
   4     -0.12362683221576
   5      0.22252750335004
   6     -0.26673171681592
   7    -0.060452910156726
   8      0.10532319217805
   9     -0.12575412085392
  10    0.0067644752509198
  11     0.010621812178674
  12    -0.017460675202044
  13    -0.0047290608564761
  14    -0.0088289148502656
  15    -0.0024283642595709
  16    -0.020149213862764
  17    -0.013307719315917
  18      0.02435253127722
  19    -0.00057261964539681
  20    -0.0004548898941064
  21     0.014619181547013
  22    -0.010367613476655
  23    0.0073147050016571
  24    -0.0007734332301152
  25      0.01281138470443
  26    -0.00047060939757895
  27     0.004938523528083
  28    -0.010492208073266
  29     0.018578704222724
  30     0.032722348849581
  31    0.0007793359665978
  32    -7.5208824247302e-05
  33    0.00093353777093871
  34    0.0038713021557518
  35    0.0082619034958365
  36    0.0016628579753611
  37    -0.00023067412144902
  38    0.00032186221963304
  39    -0.023030688118724
  40    -0.026454742641406
  41    0.0012887841784647
  42    -0.00065233753786271
  43    0.00054884768584158
  44    -0.019436156931504
  45    -0.036416967089777
  46    -0.0025843226831338
  47    0.0094635049323297
  48    -0.0078738212535607
  49      0.43303667263209
  50      0.16001689241679
  51     0.012703637048383
  52    -0.019517506073085
  53     0.023053366339219
  54    -0.019855505780759
  55    -0.037025811070657
  56    -0.0025662450249059
  57    0.0061228821287294
  58    -0.010505947257118
 Sym= A
 Ene=               5
 Spin= Alpha
 Occup=    1.00000
   1    -0.0024288391735338
   2    -0.020146792921153
   3    -0.013306059532937
   4    -0.024350433027366
   5    0.00038573052786493
   6    -0.00062662097479271
   7     -0.01461822016277
   8     0.012245659460533
   9    0.0033261459001833
  10    -0.0014000444927249
  11    -0.008450167064962
  12    0.0015169495445922
  13    0.0045769725935175
  14     -0.01424129189638
  15    -0.0051270910912054
  16      0.18299039953355
  17      0.10651749540853
  18       0.1236241119603
  19     -0.30033429619862
  20       -0.174538673249
  21     0.060451661592167
  22     -0.14198164536391
  23    -0.082148296654904
  24    -0.0036634160058801
  25    -0.0069614809100912
  26     0.015621303163367
  27    -0.010749295594355
  28     -0.01192946072102
  29    -0.019857083849723
  30    -0.037026396843163
  31    0.0025662285861817
  32    -0.0093468496947225
  33    -0.0077781203887435
  34      0.43303660740009
  35      0.16001675943035
  36    -0.012703698291518
  37     0.026225199387988
  38      0.01498765134216
  39    -0.019435437823235
  40     -0.03641709702204
  41    0.0025842178108133
  42    -0.011585869755311
  43    -0.0041622539969401
  44    -0.023032401827179
  45    -0.026455796217509
  46    -0.0012887735906319
  47    0.00080071138408028
  48    0.00029251529003167
  49    0.0038756965609739
  50    0.0082633290126169
  51    -0.0016626401520355
  52    0.00032666468098343
  53    0.00022378690250647
  54     0.018577569989001
  55     0.032721579629881
  56    -0.00077931112533518
  57    0.00039008221907853
  58    0.00085147244770046
 Sym= A
 Ene=               6
 Spin= Alpha
 Occup=    1.00000
   1    -0.0051271787693311
   2      0.18299028547728
   3      0.10651732294395
   4     -0.12362566531121
   5      0.11973153547946
   6       0.3260804244501
   7    -0.060452393187018
   8       0.0562440965097
   9      0.15408973417335
  10     0.015321437241861
  11    -0.012957055620077
  12     0.011755989040476
  13    0.00021147348595922
  14    -0.0047842017180632
  15    -0.002428702027547
  16    -0.020147377388896
  17    -0.013306512691386
  18     0.024351756018547
  19    0.00068137254177479
  20    -0.00027016962317523
  21      0.01461884577927
  22    -0.0011503462679892
  23    -0.012636771810194
  24    -0.0027581605707402
  25     -0.01549228407041
  26     0.001793615053955
  27    0.0037927554084023
  28    -0.005848780850679
  29    -0.023031523269566
  30    -0.026455388512196
  31    0.0012887843875554
  32    -0.00014911112101227
  33    -0.00083938632334322
  34     0.018579208098586
  35     0.032722236488444
  36    0.00077928689929009
  37    -0.00077075157150226
  38    -0.00053191183955796
  39    0.0038736212841254
  40    0.0082627177837159
  41    0.0016627515034986
  42    -0.0001635643321292
  43    -0.000360640681538
  44    -0.019854326621841
  45    -0.037025369986041
  46    -0.0025661720029393
  47     0.006037051568594
  48     0.010555569171737
  49    -0.019436862847377
  50    -0.036417553404196
  51    -0.0025843111491993
  52    0.0020871542163054
  53     0.012132533179551
  54      0.43303663167638
  55      0.16001680875738
  56     0.012703663414515
  57    -0.010206088837009
  58    -0.028429343228035
 Sym= A
 Ene=               7
 Spin= Alpha
 Occup=    1.00000
   1    -0.0024286701779813
   2    -0.020148074026502
   3     -0.01330689129511
   4    -0.024350883406521
   5    0.00034919748202357
   6    0.00064533644478116
   7    -0.014618426928303
   8    -0.0090036481998561
   9    0.0089409861366342
  10    -0.0039355859244235
  11    -0.0081081089063445
  12    0.0001732978974932
  13    0.0031130400803583
  14       0.0144387269285
  15    -0.005127061952506
  16      0.18299057416199
  17      0.10651752410548
  18      0.12362527401865
  19      0.30132202422483
  20     -0.17282679321639
  21     0.060452196723978
  22       0.1421333165381
  23    -0.081885014469882
  24    -0.0042760709828647
  25    -0.0068503395347066
  26    -0.015212804862078
  27    -0.011103149609835
  28     0.011993577540814
  29    -0.019433969209908
  30    -0.036416365532232
  31    0.0025841979288561
  32    0.0093975518046426
  33    -0.0079526118186599
  34    -0.019857135258837
  35    -0.037026573916163
  36    0.0025662549824131
  37     0.011409486181821
  38    -0.0042055097198637
  39      0.43303656639608
  40      0.16001668151227
  41    -0.012703675164181
  42    -0.026092290567139
  43     0.015217898501725
  44     0.018577915070422
  45     0.032721929808956
  46    -0.00077932166089173
  47    -0.00093245212590699
  48    -8.7978498613792e-05
  49    -0.023031815595758
  50    -0.026455287406995
  51    -0.0012887748288768
  52    -0.00065371143267448
  53    0.00054712852814577
  54    0.0038733145548517
  55     0.008262430437563
  56    -0.0016627389717058
  57    -0.00035708121395803
  58    0.00017115004579676
 Sym= A
 Ene=               8
 Spin= Alpha
 Occup=    1.00000
   1    0.0054992208936065
   2     -0.19692067859718
   3     -0.14777341855086
   4     -0.36719590003875
   5    -2.0951667926541e-06
   6    9.0752305421566e-07
   7     -0.17042119870039
   8    -9.7963497418278e-07
   9    3.5764993769366e-07
  10     0.016043693037803
  11    4.8384601048618e-08
  12    8.5065713269281e-08
  13    -0.027788620381779
  14    4.7711906181145e-08
  15    0.0054986347326152
  16     -0.19691825100542
  17     -0.14777197845245
  18      0.36719708759626
  19    -7.2402634863903e-07
  20    1.7874478938386e-06
  21      0.17042174602834
  22    -2.5886002727436e-07
  23    8.3030246153048e-07
  24     0.016043891113926
  25    2.6602460687644e-08
  26    3.2308201444119e-08
  27    -0.027788673779275
  28    7.0307041455803e-08
  29      0.02219901498129
  30     0.037368490464339
  31    0.0094807067916264
  32    6.9444262816258e-07
  33    0.0014043834777982
  34     0.022197202639403
  35     0.037367701597666
  36     0.009480762127792
  37    -0.0012166945514814
  38    -0.00070156620472543
  39     0.022196369196545
  40     0.037367572913802
  41    0.0094807984779298
  42    0.0012160236849515
  43    -0.00070285643427552
  44     0.022197582025745
  45     0.037368299797606
  46    -0.0094807477390836
  47    -0.0013831076560474
  48    -0.00024456845106514
  49     0.022194314003326
  50     0.037367049349886
  51    -0.0094808586728844
  52    0.00090347506427231
  53    -0.0010756532680756
  54     0.022195973504498
  55     0.037367555796943
  56    -0.0094807962388297
  57    0.00047967576048448
  58    0.0013201964992674
 Sym= A
 Ene=               9
 Spin= Alpha
 Occup=    0.00000
   1     -0.16406028896348
   2     -0.21030332766381
   3       3.6235224366857
   4      0.32343922663493
   5    0.00019752142435858
   6    0.00030379393726501
   7       1.7666767373492
   8    0.00018831928342148
   9    0.00094874672781432
  10    -0.083431521454846
  11    -0.00035825426168001
  12    0.0012402253117462
  13      0.14867208210673
  14    -0.00029982004650661
  15      0.27660568520152
  16      0.52990796788482
  17      -2.0899527721179
  18      -0.3480507551418
  19    7.1491235436765e-05
  20    -0.00013093657519919
  21       3.6691896444226
  22    0.00024756460088535
  23    -0.00093050004202771
  24       0.1333496323747
  25    -0.00038440461083029
  26    -0.001073198657048
  27     -0.23240812626759
  28    -0.00026231266138561
  29     -0.16692688966118
  30     -0.50237402232238
  31     -0.29822231169112
  32    0.00011193359699996
  33      0.18353382976435
  34     -0.16757918469503
  35     -0.50286087179571
  36     -0.29830133915982
  37     -0.15899978760453
  38    -0.092195872198958
  39     -0.16821166845894
  40     -0.50298808389378
  41     -0.29787687768921
  42       0.1594681174775
  43    -0.091748248724079
  44     -0.15201230237987
  45      0.12399392240628
  46    0.0093885548973684
  47    0.0020168172313926
  48    -0.00082215929969731
  49     -0.15235926499254
  50      0.12408928403211
  51     0.009257442000938
  52    0.0004779910017847
  53    0.0025618393723659
  54     -0.15412166899399
  55      0.12359419177128
  56    0.0087435993111915
  57    -0.0016693101418132
  58    -0.00040081096085032
 Sym= A
 Ene=              10
 Spin= Alpha
 Occup=    0.00000
   1     0.061157145527366
   2     0.070933220834216
   3      -1.1913371974972
   4     -0.12833905372353
   5    0.0026350293908235
   6     0.027549701215786
   7     -0.43701667811646
   8     -0.16774708487729
   9      -0.8419350874197
  10     0.024640874575598
  11     -0.11555468424598
  12     0.027278468401032
  13    -0.023232205336923
  14    -0.0050546777442958
  15     -0.40739895231028
  16     -0.71829419334259
  17       3.4053727622401
  18      0.16654286857023
  19    -0.0055122108166468
  20     0.079753908201204
  21    -0.099370382869107
  22      0.19127333581867
  23       2.6911184173898
  24      0.33788297145263
  25      0.29670744347605
  26    -0.017675488031176
  27      0.12241608438081
  28     0.010561231276131
  29      -1.6669129898013
  30      -1.8707239610387
  31       0.2552956924404
  32    -0.021980847944315
  33       0.4675185404387
  34    -0.0049433279835796
  35       0.3880197481001
  36    -0.043868120652184
  37      0.11794248475091
  38     -0.21629418599661
  39    -0.098154614181804
  40      0.20650435852888
  41     -0.03056322179004
  42     -0.10661477044949
  43     -0.24720512315863
  44     0.042847812462261
  45     -0.12902109772679
  46    0.00048448788933485
  47    -0.0022175339629668
  48     0.063014909778381
  49     0.069067382880738
  50    -0.071739931107843
  51     0.064865774734831
  52     0.012425997815361
  53     0.059405878515449
  54     0.099295143665627
  55      0.36032150002367
  56    -0.052270005074431
  57    -0.011344027042832
  58     0.029229365929575
 Sym= A
 Ene=              11
 Spin= Alpha
 Occup=    0.00000
   1      0.40737272770597
   2      0.71824515860188
   3      -3.4051650078806
   4      0.16657297049956
   5     0.079531660985849
   6    0.0084033270351664
   7    -0.099329884884648
   8       2.6169573518993
   9      0.65594567221413
  10      0.26171818059761
  11      -0.0619503086907
  12     -0.10441586917432
  13      0.22376033695588
  14     -0.29038843929299
  15    -0.061139717678442
  16     -0.07090408172288
  17       1.1911955758548
  18     -0.12833435179974
  19      0.02665614791399
  20     0.007403799229747
  21     -0.43692061571731
  22     -0.79993768964911
  23     -0.31153088905168
  24    -0.016390174798715
  25     0.025058183985912
  26     -0.02895737172964
  27     0.027991907596801
  28      0.11291227932379
  29    -0.042826487643041
  30      0.12906710912332
  31    0.00046380192012846
  32     0.062434881657846
  33    0.0087804728537829
  34    -0.099281820045574
  35     -0.36031121376861
  36     -0.05228527039467
  37     0.030746936939153
  38    -0.0060858782233298
  39    -0.069063295272926
  40     0.071671063950871
  41     0.064855303434582
  42     0.056344484077854
  43     0.022560301109748
  44       1.6669340234637
  45        1.870688506589
  46      0.25530262139404
  47      0.46427120201813
  48     0.059484833801594
  49     0.098189133483368
  50     -0.20638526799467
  51    -0.030559692658368
  52     -0.22495793169948
  53     -0.14793504973597
  54    0.0048573016400789
  55     -0.38815142320588
  56    -0.043877361884271
  57     -0.23346715097126
  58     0.078600082491992
 Sym= A
 Ene=              12
 Spin= Alpha
 Occup=    0.00000
   1     -0.40744279000977
   2     -0.71841527746677
   3       3.4054406692359
   4     -0.16663063245212
   5     0.032111864284454
   6     0.073571444946511
   7     0.099664596376851
   8      0.73978052692032
   9       2.5953283073073
  10       0.2573125517704
  11     -0.28250436546511
  12      0.24592270853593
  13     0.074676579321287
  14    -0.091287724010063
  15     0.061172612844305
  16      0.07093786777783
  17      -1.1913779613526
  18      0.12821276822678
  19    0.0070248473043409
  20     0.027055878434727
  21      0.43685882249676
  22     -0.12974425630808
  23     -0.84840980227674
  24     0.038938789670942
  25      0.11073059207178
  26    -0.015364631202278
  27    -0.014623116004501
  28     0.034833649124944
  29      0.09859154737978
  30      0.36027276947304
  31     0.052529137066324
  32      0.02077953360317
  33     0.023912049309995
  34     0.069843226181114
  35    -0.071529881921519
  36    -0.065074536063761
  37    0.0088210900929243
  38     0.060405877879708
  39     0.042953530543801
  40     -0.12916296339131
  41    -0.00055813028952266
  42     0.023740516966193
  43     0.058781975306457
  44    -0.099021015563082
  45      0.20630959018268
  46     0.030091206338279
  47      0.01514230095471
  48     -0.26767804854598
  49    -0.0028446334670534
  50      0.38848374308857
  51     0.044497065117463
  52      -0.1850854393577
  53     -0.16198604436956
  54      -1.6685197827737
  55      -1.8708137606015
  56     -0.25626722198682
  57      0.18005201601907
  58      0.43260720515365
 Sym= A
 Ene=              13
 Spin= Alpha
 Occup=    0.00000
   1     -0.27662740856709
   2     -0.52995996842239
   3       2.0900359202413
   4     -0.34808924159434
   5    -0.00018936864609185
   6    7.2626326276807e-05
   7        3.669170961151
   8    -0.00077210867181067
   9    -0.00031342694658616
  10      -0.1342630685218
  11    0.00035988575882347
  12    0.0012324793891078
  13       0.2319005322267
  14    0.00036162836661109
  15      0.16405123395835
  16      0.21029275186876
  17      -3.6234767636342
  18      0.32343387362842
  19     0.000280117925999
  20    0.00021203314430128
  21       1.7666512011297
  22    0.00072278480653897
  23    0.00054237339352604
  24     0.086582268028953
  25    0.0003328034140169
  26    -0.0018635810927264
  27     -0.14685439650667
  28    0.00030504569430933
  29      0.15198542575865
  30     -0.12406709135234
  31    0.0093957058194067
  32    -0.0011470284504887
  33    0.0018200861520859
  34      0.15409238883302
  35     -0.12364065765656
  36    0.0087572652845435
  37    -0.00010355064364613
  38    -0.0017321560418968
  39      0.15239454520171
  40     -0.12398765134195
  41    0.0092620920073341
  42    0.0024423466099903
  43    0.00091335411874153
  44      0.16691878691884
  45      0.50239253232083
  46     -0.29821387565533
  47      0.18067125532316
  48     0.032023783359936
  49      0.16808151059075
  50       0.5027782315151
  51     -0.29788875584615
  52     -0.11802579150138
  53      0.14111092526603
  54      0.16767198358316
  55      0.50300498870231
  56     -0.29828216058625
  57    -0.063225623699042
  58     -0.17260318248052
 Sym= A
 Ene=              14
 Spin= Alpha
 Occup=    0.00000
   1     0.061187492214129
   2     0.070975283808137
   3      -1.1912833414232
   4     -0.12818292585318
   5    -0.025434230414843
   6    -0.011611531301581
   7     -0.43681183765662
   8      0.81302399087609
   9      0.27506769209324
  10    -0.0099639596901769
  11     0.053548673105784
  12    -0.0054276012894198
  13    -0.042842400470713
  14      0.10300203913486
  15     -0.40740873711423
  16     -0.71834258440356
  17       3.4052779579048
  18      0.16657282120815
  19    -0.066850441039988
  20     -0.04442696730149
  21    -0.099500678697112
  22       -2.427399789648
  23      -1.1793953102449
  24     -0.10693233622091
  25     -0.13901974554105
  26      0.32005557642023
  27     -0.13564885723759
  28     -0.26232686867707
  29    -0.098907967044595
  30      0.20640494731032
  31    -0.030059214314737
  32       0.2661795682715
  33     0.031493929409479
  34      -1.6685422923045
  35      -1.8708508702988
  36      0.25626046460289
  37       -0.394788205227
  38     -0.25242684552456
  39    -0.0029239363317718
  40      0.38839757209478
  41    -0.044495021177466
  42       0.1274260286992
  43      0.21039097058205
  44     0.098605729522024
  45      0.36029435808634
  46    -0.052530075051826
  47    -0.019941123157037
  48    -0.024610860838828
  49     0.042921585432606
  50     -0.12918237595752
  51    0.00055313071522044
  52    -0.053753273874908
  53    -0.033587997897776
  54     0.069862301830407
  55    -0.071499011552915
  56     0.065089206556707
  57    -0.057956484710957
  58    -0.019182533743321
 Sym= A
 Ene=              15
 Spin= Alpha
 Occup=    0.00000
   1     0.061155610254099
   2     0.070897420511447
   3      -1.1920383148366
   4     -0.12841682852857
   5     0.022650715070397
   6     -0.01637583201179
   7     -0.43718236335682
   8      -0.6446607708388
   9      0.56607638546609
  10     0.031899647748044
  11     0.062466386026786
  12    -0.023673093616499
  13    -0.018707313532176
  14     -0.09772553982049
  15     -0.40748963576806
  16     -0.71847332979386
  17       3.4057582643774
  18      0.16670092586513
  19     0.071339052353573
  20    -0.035721246612473
  21     -0.10002601945483
  22       2.2339457955229
  23      -1.5121784853639
  24     -0.13880609043901
  25     -0.15772189517778
  26     -0.29425117191376
  27     -0.15280487362167
  28      0.25141388625223
  29    -0.0029332133824563
  30       0.3883333557521
  31    -0.044563355778731