[Molden Format]
made by pyscf v[2.0.1]
[Atoms] (AU)
C   1   6     0.00000000000000     0.00000000000000     0.00000000000000
C   2   6     2.88195139270757     0.00000000000000     0.00000000000000
H   3   1     3.63065534584939     0.00000000000000     1.92469232395612
H   4   1     3.63065534584939    -1.66683244701491    -0.96234616197806
H   5   1     3.63065534584939     1.66683244701491    -0.96234616197806
H   6   1    -0.74870395314182     0.33421931462451    -1.89545192279507
H   7   1    -0.74870395314182     1.47439985948033     1.23716837829778
H   8   1    -0.74870395314182    -1.80861917410484     0.65828354449729
[GTO]
1 0
 s    8 1.00
                  6665  0.00069158396281299
                  1000  0.0053257961529341
                   228   0.027060721042034
                 64.71    0.10165684614077
                 21.06     0.2745748236174
                 7.495    0.44829431892377
                 2.797    0.28490261071525
                0.5215   0.015194859206082
 s    8 1.00
                  6665  -0.00029326965268655
                  1000  -0.0023180354739745
                   228  -0.011499786038565
                 64.71  -0.046826727009787
                 21.06   -0.12846616875047
                 7.495   -0.30126627246289
                 2.797   -0.25563070233011
                0.5215      1.093793361012
 s    1 1.00
                0.1596                   1
 p    3 1.00
                 9.439   0.056979251590039
                 2.002    0.31320721150073
                0.5456    0.76037674173753
 p    1 1.00
                0.1517                   1
 d    1 1.00
                  0.55                   1

2 0
 s    8 1.00
                  6665  0.00069158396281299
                  1000  0.0053257961529341
                   228   0.027060721042034
                 64.71    0.10165684614077
                 21.06     0.2745748236174
                 7.495    0.44829431892377
                 2.797    0.28490261071525
                0.5215   0.015194859206082
 s    8 1.00
                  6665  -0.00029326965268655
                  1000  -0.0023180354739745
                   228  -0.011499786038565
                 64.71  -0.046826727009787
                 21.06   -0.12846616875047
                 7.495   -0.30126627246289
                 2.797   -0.25563070233011
                0.5215      1.093793361012
 s    1 1.00
                0.1596                   1
 p    3 1.00
                 9.439   0.056979251590039
                 2.002    0.31320721150073
                0.5456    0.76037674173753
 p    1 1.00
                0.1517                   1
 d    1 1.00
                  0.55                   1

3 0
 s    3 1.00
                 13.01   0.033498726389998
                 1.962    0.23480080117413
                0.4446     0.8136829578829
 s    1 1.00
                 0.122                   1
 p    1 1.00
                 0.727                   1

4 0
 s    3 1.00
                 13.01   0.033498726389998
                 1.962    0.23480080117413
                0.4446     0.8136829578829
 s    1 1.00
                 0.122                   1
 p    1 1.00
                 0.727                   1

5 0
 s    3 1.00
                 13.01   0.033498726389998
                 1.962    0.23480080117413
                0.4446     0.8136829578829
 s    1 1.00
                 0.122                   1
 p    1 1.00
                 0.727                   1

6 0
 s    3 1.00
                 13.01   0.033498726389998
                 1.962    0.23480080117413
                0.4446     0.8136829578829
 s    1 1.00
                 0.122                   1
 p    1 1.00
                 0.727                   1

7 0
 s    3 1.00
                 13.01   0.033498726389998
                 1.962    0.23480080117413
                0.4446     0.8136829578829
 s    1 1.00
                 0.122                   1
 p    1 1.00
                 0.727                   1

8 0
 s    3 1.00
                 13.01   0.033498726389998
                 1.962    0.23480080117413
                0.4446     0.8136829578829
 s    1 1.00
                 0.122                   1
 p    1 1.00
                 0.727                   1

[5d]
[7f]
[9g]

[MO]
 Sym= A
 Ene=               0
 Spin= Alpha
 Occup=    1.00000
   1    -1.1347907648795e-05
   2    -0.00043914762676896
   3    0.0018459570920708
   4    -0.0011407256979499
   5    -9.3203397434286e-09
   6    4.5070487708915e-08
   7    0.00058923849555502
   8    -2.5933883756124e-09
   9    2.3392824739122e-08
  10    0.00024973922887149
  11    -8.011201383608e-09
  12    1.6662172236542e-09
  13    -0.00043256790219613
  14    -2.357827465942e-09
  15       1.0026234099129
  16    -0.00041206776956026
  17    -0.012707770885568
  18    -0.00096766719647151
  19    -5.6959317767763e-08
  20    -1.2661851904322e-07
  21    0.00015369269782089
  22    -2.6219723498438e-08
  23    -5.9930412965837e-08
  24    9.0357715702775e-05
  25    -7.3539376293519e-09
  26    3.1306981798979e-09
  27    -0.0001565184344483
  28    -1.866207441915e-09
  29    -0.0029106159008896
  30    0.00073761316266076
  31    0.00021450530775881
  32    -3.1678469130229e-07
  33    0.00079402164119373
  34    -0.002910403260662
  35    0.00073771079365528
  36    0.00021449799384116
  37    -0.00068747549901947
  38    -0.00039728095360113
  39    -0.0029104882151087
  40    0.00073767480685815
  41    0.0002145009464876
  42    0.00068779330812455
  43    -0.00039673891002233
  44    3.5100416257232e-05
  45    0.00019274444107851
  46    3.6326041421285e-05
  47    -4.7195565583139e-06
  48    1.0413151003558e-05
  49    3.5177050087708e-05
  50    0.00019279676971148
  51    3.6328781482735e-05
  52    -6.6606339426176e-06
  53    -9.2941022137371e-06
  54    3.5169465320921e-05
  55    0.00019278356426151
  56    3.6328610280188e-05
  57    1.1380738271904e-05
  58    -1.1187329072173e-06
 Sym= A
 Ene=               1
 Spin= Alpha
 Occup=    1.00000
   1        1.002623407363
   2    -0.00041198386395149
   3    -0.012707713471729
   4    0.00096773980593369
   5    3.7662982917465e-08
   6    7.8199345534778e-08
   7    -0.00015365985935351
   8    1.8236811688943e-08
   9    3.6428727188906e-08
  10    9.0357960165312e-05
  11    -3.3978839003225e-09
  12    4.1015879461916e-09
  13    -0.00015650976051134
  14    -3.1348008842378e-09
  15    -1.1350855914832e-05
  16    -0.00043908667662384
  17    0.0018460011703356
  18    0.0011406418659252
  19    -3.2805194087624e-08
  20    -4.2963789048996e-09
  21    -0.00058927667469767
  22    -1.5725804616559e-08
  23    -3.7936763473369e-09
  24    0.0002497370562371
  25    -3.970530777502e-09
  26    2.3215849383583e-09
  27    -0.00043255906739444
  28    -3.1900753376419e-09
  29    3.5142777288143e-05
  30    0.00019275786139016
  31    -3.6329898834771e-05
  32    -2.8408061650234e-06
  33    -1.1077526506828e-05
  34    3.5184094895322e-05
  35    0.00019278770851054
  36    -3.6331386762822e-05
  37    1.1013909372857e-05
  38    3.0802417567594e-06
  39    3.5129687966409e-05
  40    0.0001927583496899
  41    -3.6329398468688e-05
  42    -8.1729066733349e-06
  43    7.9967352896103e-06
  44    -0.002910545686203
  45    0.00073763523536219
  46    -0.00021450066877527
  47    0.00013757084120321
  48    -0.00078200778742905
  49    -0.0029104135106713
  50    0.00073769515974702
  51    -0.00021449611411659
  52    0.00060844877692557
  53    0.00051013929255922
  54    -0.0029104939706038
  55    0.00073765549698599
  56    -0.00021449888093233
  57    -0.00074601998832387
  58    0.00027186721697537
 Sym= A
 Ene=               2
 Spin= Alpha
 Occup=    1.00000
   1    -0.0024755287246948
   2    -0.020005446359513
   3    -0.012556545785969
   4     -0.02415124826161
   5    -0.00042442285102167
   6    0.0012170176309986
   7    -0.013697218070246
   8    -0.0017944226762091
   9    -0.006664750829233
  10    0.00065800073150042
  11     0.016827042592476
  12    -0.00097061295987917
  13     0.005707064433805
  14    -0.0001133396281008
  15    -0.0050221285562233
  16      0.18333823747727
  17      0.10566057309145
  18      0.12357559565147
  19    -0.00055608760895012
  20      0.34696064537746
  21       0.0610014424785
  22    -9.42318655905e-05
  23      0.16181111667843
  24     0.019557369481587
  25     0.014061979043739
  26    -0.00023137946149061
  27      0.00282971458066
  28    -3.5580196885083e-05
  29      0.43308591612327
  30      0.16025715757606
  31    -0.012844092705937
  32    -7.5697498659216e-05
  33    -0.030059643186507
  34    -0.019502894239055
  35    -0.036940508405232
  36    0.0025817891826051
  37    0.0022616491056903
  38     0.012103161888728
  39    -0.019729391400439
  40    -0.037281223674727
  41     0.002570662324953
  42    -0.0021905159692586
  43     0.012030355356594
  44     0.023720247546306
  45     0.042641932429334
  46    -0.00034151649974161
  47    0.00022132165565677
  48    -0.0013175607403737
  49    -0.016006930183744
  50    -0.018171308166016
  51    -0.0018147885866469
  52    -0.0003282878893143
  53    -0.00085279271306728
  54    -0.008817439559794
  55    -0.0091524674091944
  56    -0.0019679510142861
  57    0.00034882763379425
  58    -0.00071665044836824
 Sym= A
 Ene=               3
 Spin= Alpha
 Occup=    1.00000
   1    -0.0050224228729282
   2      0.18333798517369
   3      0.10566040527338
   4     -0.12357589587624
   5     -0.32584779491225
   6      0.11918574584788
   7    -0.061001591174369
   8     -0.15202123806959
   9     0.055429203627113
  10    -0.0083820249766786
  11    -0.0048427758064096
  12    -0.011973893499184
  13    -0.013301100748125
  14     0.013201836190535
  15    -0.0024755779361993
  16    -0.020004793816855
  17    -0.012556191283454
  18     0.024151990365878
  19    -0.00099845288534048
  20    0.00081429936566712
  21     0.013697577450594
  22    0.0068765633516166
  23    -0.0005935355852831
  24    -0.0040375112656717
  25    -0.0058615129716938
  26    -0.0029440648370163
  27    0.0029960496371743
  28     0.015773564309685
  29    -0.0088172292483008
  30    -0.0091521460573103
  31    0.0019679570137782
  32    0.00055412907100304
  33    -0.00057291458893064
  34    -0.016006301084467
  35     -0.01817142997348
  36    0.0018147851656839
  37    0.00091373350554117
  38    1.6849930722717e-05
  39     0.023721104807973
  40     0.042642160426238
  41    0.00034149827588323
  42    0.0011623284488859
  43    -0.00065857629837787
  44    -0.019725996357218
  45    -0.037279757785332
  46    -0.0025705586417293
  47    -0.010555737095717
  48    0.0061731877248865
  49    -0.019506387409001
  50    -0.036941951409908
  51    -0.0025819198989986
  52       -0.012146601175
  53    0.0020143315780884
  54      0.43308595569843
  55      0.16025724713665
  56     0.012844082998479
  57      0.02827266319093
  58    -0.010210004279328
 Sym= A
 Ene=               4
 Spin= Alpha
 Occup=    1.00000
   1    -0.002475608005448
   2    -0.020005384260822
   3    -0.012556541972054
   4    -0.024151822243137
   5    -0.00083989554321459
   6    -0.00097931090995538
   7    -0.013697498565419
   8    0.0066699201048631
   9    0.0017768234917222
  10    -0.0030609440977235
  11    -0.0085114857285857
  12    0.0034500379427606
  13    0.0035599042956715
  14     -0.01451605530089
  15    -0.0050226054733896
  16      0.18333863064554
  17      0.10566077509587
  18      0.12357633234123
  19     -0.30019875004554
  20      -0.1739607062111
  21      0.06100179970194
  22     -0.14008550337989
  23     -0.08098654571523
  24    -0.0041089812031832
  25    -0.0070615957322523
  26     0.016009032074079
  27    -0.010834108293087
  28     -0.01216033313879
  29     -0.01972766542115
  30    -0.037280270764532
  31    0.0025706171367292
  32    -0.0093233400556332
  33    -0.0079123068962013
  34      0.43308587175975
  35      0.16025706274506
  36    -0.012844071712184
  37     0.026070265956792
  38     0.014964313285716
  39    -0.019503258429991
  40    -0.036940975476385
  41    0.0025818183248304
  42    -0.011612480359043
  43    -0.0040928887656531
  44    -0.0088140706365987
  45    -0.0091509080819508
  46    -0.001967851372291
  47    0.00044623303376816
  48    0.00066059091256722
  49     0.023719850234825
  50     0.042641698549894
  51    -0.00034154531795202
  52    0.0010304569089979
  53    0.00085036341666174
  54    -0.016009230901216
  55    -0.018172357104668
  56    -0.0018148838919176
  57    0.00090256748602376
  58    0.0001420510157976
 Sym= A
 Ene=               5
 Spin= Alpha
 Occup=    1.00000
   1    -0.0050222445902371
   2      0.18333708939512
   3       0.1056595694825
   4     -0.12357963908761
   5      0.05970495355935
   6     -0.34178479656849
   7    -0.061003315676113
   8     0.028006985584574
   9     -0.15936860985683
  10     0.018667640201572
  11     0.013854528225083
  12    -0.0060591723725902
  13    0.0023155875468286
  14    -0.0024068225439318
  15    -0.0024753443715228
  16    -0.020008738276257
  17    -0.012558799722448
  18     0.024154242896765
  19    -0.00020421351647861
  20    -0.0012710840030499
  21     0.013698592744552
  22    -0.0029234170605396
  23    0.0062523895512277
  24    0.00076687475703985
  25     0.016591067828553
  26    -0.000258876761653
  27    0.0057696267633853
  28    -0.0028104398856946
  29     0.023720499492877
  30     0.042642447345806
  31    0.0003416019788889
  32    -1.0763601608724e-05
  33     0.001336039280351
  34    -0.0088201473291121
  35    -0.0091528693660523
  36    0.0019681379228912
  37    0.00021887475007718
  38    0.00076621068273648
  39    -0.016006425711371
  40    -0.018170794673334
  41    0.0018148706856988
  42    -0.00047131844999259
  43    0.00078286483468253
  44      0.43308612183351
  45      0.16025744922527
  46     0.012844000178037
  47    -0.0052942440903417
  48     0.029589858060696
  49    -0.019725777137615
  50    -0.037279718488298
  51    -0.0025706426719638
  52    -6.8319762226851e-05
  53    -0.012228128157682
  54     -0.01950449913237
  55    -0.036940933666022
  56    -0.0025819460148107
  57    0.0043289287877821
  58     -0.01152646113565
 Sym= A
 Ene=               6
 Spin= Alpha
 Occup=    1.00000
   1    -0.0024754313366674
   2     -0.02000819162483
   3     -0.01255840395804
   4    -0.024153525833647
   5     0.001266634985746
   6    -0.00024001759120861
   7    -0.013698270719726
   8    -0.0048744002173802
   9    0.0048868085410204
  10    -0.0045169911418848
  11    -0.0083153774025685
  12    -0.0024793710981268
  13    0.0027190845021833
  14     0.014629244742145
  15    -0.0050223770423633
  16      0.18333812297947
  17      0.10566024890551
  18      0.12357916019238
  19      0.30075369464013
  20     -0.17299818085375
  21     0.061003106898494
  22      0.14017914389057
  23    -0.080823712911222
  24    -0.0044559776952294
  25    -0.0070001987618034
  26    -0.015777575874527
  27    -0.011034773366486
  28     0.012195754652274
  29    -0.019501380870185
  30    -0.036939937696631
  31    0.0025818218539142
  32    0.0093507861132945
  33    -0.0080103505622012
  34    -0.019727658296397
  35    -0.037280415267228
  36     0.002570686611731
  37     0.011513941630025
  38    -0.0041180478074488
  39      0.43308595927777
  40       0.1602571602836
  41    -0.012844009274051
  42    -0.025994607127754
  43       0.0150953972804
  44    -0.016008213849094
  45    -0.018171392993767
  46    -0.0018149098422751
  47    -0.00057435110270287
  48    0.00071056860418193
  49    -0.008817187745006
  50    -0.0091518952101767
  51    -0.0019680185003519
  52    -0.0007950103428061
  53    5.6280871948829e-05
  54      0.02371945646718
  55     0.042641912481293
  56    -0.00034162125203852
  57    -0.0012517863841912
  58    0.00046717459989605
 Sym= A
 Ene=               7
 Spin= Alpha
 Occup=    1.00000
   1    -0.0050225643293634
   2      0.18333771692819
   3      0.10565996875089
   4     -0.12357967152027
   5      0.26614078449697
   6      0.22259893769264
   7    -0.061003352091025
   8      0.12401324981152
   9      0.10393937865289
  10    0.00070681439230717
  11    -0.0090117838279449
  12     0.018032947443897
  13    -0.0080540570317266
  14    -0.010794820425626
  15    -0.002475512555756
  16    -0.020007731086516
  17    -0.012558182005876
  18     0.024154460630771
  19    0.0012049128688805
  20    0.0004560346167498
  21     0.013698717594529
  22    -0.0039520564527737
  23    -0.0056591928917622
  24    -0.0036493217460582
  25    -0.010729580283057
  26    0.0032028021211825
  27    0.0032199518736523
  28    -0.012962932837748
  29    -0.016008200955785
  30    -0.018171762305218
  31    0.0018149332362146
  32    -0.00044225687662438
  33    -0.00079956786797256
  34     0.023720667825642
  35     0.042642323824335
  36    0.00034159664835661
  37    -0.0011515613876833
  38    -0.00067740372177051
  39    -0.0088168132397177
  40    -0.0091514695909142
  41    0.0019680247065223
  42    -0.00077318665722548
  43    -0.00019348978445057
  44    -0.019504999837028
  45    -0.036941464563648
  46    -0.0025819632397888
  47    0.0078177075978603
  48    0.0095122108580269
  49      0.43308605375663
  50      0.16025733486429
  51     0.012843995475244
  52    -0.022978490691758
  53     -0.01937986378709
  54    -0.019724217205813
  55    -0.037278896895305
  56    -0.0025705866913435
  57      0.01062410924512
  58    0.0060548758722661
 Sym= A
 Ene=               8
 Spin= Alpha
 Occup=    1.00000
   1    -0.0055342714440299
   2      0.19647713491539
   3       0.1478750233699
   4      0.36758741651667
   5    2.8087674612988e-06
   6    -1.3869608257168e-06
   7      0.17053082279183
   8    1.274158708014e-06
   9    -6.0502372355951e-07
  10    -0.015946360470039
  11    -1.5077314404213e-08
  12    7.7268759788747e-08
  13     0.027620137937577
  14    -1.2320427566838e-08
  15    -0.0055339786017572
  16      0.19647485415744
  17      0.14787369357429
  18     -0.36758853224636
  19    2.0850422772602e-06
  20    -1.4887927180644e-06
  21     -0.17053135317462
  22    9.0693577107915e-07
  23    -6.7944224541626e-07
  24    -0.015946578879506
  25    7.9072596102276e-09
  26    -8.4343142367844e-08
  27     0.027620166596414
  28    -5.120574987511e-08
  29    -0.022406140700236
  30    -0.037522785659589
  31    -0.0094424504560374
  32    -7.7026844020803e-07
  33    -0.0013491600597924
  34    -0.022405745376638
  35    -0.037522608074113
  36    -0.0094424601384296
  37    0.0011688712506417
  38    0.00067381123435054
  39     -0.02240296014002
  40    -0.037521764084618
  41    -0.009442554372348
  42    -0.0011681587479878
  43    0.00067538763133455
  44    -0.022401993000119
  45    -0.037521612093645
  46    0.0094425833059898
  47    -0.00023508073744283
  48     0.001328853179009
  49    -0.022402422298944
  50    -0.037521724930402
  51     0.009442566202236
  52    -0.0010331552631967
  53    -0.00086811617917665
  54    -0.022405998621317
  55    -0.037523028038524
  56    0.0094424481876563
  57    0.0012681698297974
  58    -0.00046070256874649
 Sym= A
 Ene=               9
 Spin= Alpha
 Occup=    0.00000
   1     -0.16463947643818
   2     -0.21132590564713
   3        3.623067344191
   4      0.32481639818963
   5    2.9845357076608e-05
   6    -0.00046009057633888
   7       1.7674896480669
   8    0.00027339329749958
   9    -0.00073375139682843
  10    -0.082981957682109
  11    0.00035437207506878
  12    -0.0013179294665149
  13      0.14935186580658
  14    -0.00011096501843469
  15      0.28023371399783
  16      0.53746645861386
  17      -2.1114551047588
  18     -0.34622043577248
  19    -0.00014739047996128
  20    -0.00018516489311113
  21       3.6665303643079
  22    -0.00075970975399226
  23    -0.0005826814095198
  24      0.13180020399013
  25    -0.00019206099321489
  26    0.00077004334975584
  27     -0.23084943614209
  28    -0.00039795250182277
  29     -0.16805765239594
  30     -0.49496025216259
  31     -0.30023762288848
  32    -0.00020380987828779
  33      0.18411890068085
  34     -0.16968648856084
  35     -0.49567371525192
  36      -0.2997311807161
  37     -0.15984519328419
  38    -0.092640057689865
  39     -0.16858844036372
  40     -0.49509407363834
  41     -0.29993689729523
  42      0.15956878367384
  43     -0.09222549803912
  44     -0.15426435004212
  45      0.12351490147248
  46    0.0082101304823414
  47    0.00021070230569938
  48    0.0033258190265144
  49     -0.15190684374002
  50      0.12386054386354
  51    0.0091390493616042
  52    -0.0034245368240782
  53    -0.0024658961394613
  54     -0.15204588631014
  55      0.12391136369138
  56     0.008986240246979
  57    0.0033851768293546
  58    -0.0028507684279247
 Sym= A
 Ene=              10
 Spin= Alpha
 Occup=    0.00000
   1       0.0573865022951
   2     0.065006364941783
   3      -1.1489557735584
   4     -0.12840048796361
   5     -0.02466462787891
   6    -0.012196777445858
   7     -0.44518200584851
   8      0.60576917848558
   9      0.24249701223121
  10     0.020888235490231
  11     0.053965062386925
  12    -0.039864138055594
  13    -0.034749091744457
  14       0.1021858388078
  15     -0.40858905097033
  16       -0.721959516593
  17       3.4009126702078
  18      0.16281059423804
  19    -0.064129593091747
  20    -0.041627282375535
  21     -0.10043661807098
  22      -2.3336523830267
  23      -1.1934475727801
  24     -0.11389407170537
  25     -0.14468688383408
  26      0.31862396443353
  27     -0.13716375181774
  28       -0.270030166382
  29     -0.08759540214414
  30      0.21199767657134
  31    -0.031173221157496
  32      0.26005418274601
  33     0.027073149674999
  34      -1.6551952080473
  35      -1.8215756595603
  36      0.25507410425722
  37     -0.39508261205618
  38     -0.24565864374783
  39      -0.0161958111418
  40      0.33595593806205
  41    -0.042132791715225
  42      0.12980091015559
  43      0.20838494125951
  44     0.047519286054911
  45    0.0043199372542817
  46    -0.040359939405494
  47    -0.055654189769843
  48    -0.020741057317428
  49     0.078109206436135
  50    -0.027850474537423
  51     0.097208165620893
  52    -0.048867093658789
  53    -0.021299477218489
  54     0.062124600064615
  55      0.14818549553905
  56    -0.059609291185593
  57    -0.036103515831646
  58    -0.036605738477021
 Sym= A
 Ene=              11
 Spin= Alpha
 Occup=    0.00000
   1      0.40857856220008
   2      0.72193590828887
   3       -3.400872690372
   4      0.16280982342772
   5    -0.0094584792451913
   6      0.07589001134161
   7     -0.10035146523905
   8     -0.58290049794744
   9       2.5554215988538
  10     -0.32774997542496
  11     -0.29993362018609
  12       0.1096421853084
  13     -0.11781562107771
  14     0.062462063053709
  15    -0.057377384811964
  16     -0.06498946900345
  17        1.148854029745
  18     -0.12839011981183
  19    -0.0064556276298303
  20      0.02674082186358
  21     -0.44514440874873
  22      0.20242353413448
  23     -0.62006405595299
  24     0.013853640010961
  25      0.11300028651706
  26    0.0062307509565649
  27     0.054809478463669
  28     -0.02424195240216
  29    -0.078115644420006
  30      0.02788572678871
  31     0.097225999762746
  32    -0.014973187384932
  33     0.051141571964591
  34    -0.047636812367083
  35    -0.0046573411053167
  36    -0.040432243555263
  37    -0.019844340192289
  38     0.055927762148416
  39    -0.061987149614617
  40     -0.14788427469844
  41    -0.059555631239974
  42    0.0048710006373649
  43     0.051244993157073
  44       1.6552626705392
  45       1.8216644747092
  46      0.25508331563953
  47    -0.066124634826003
  48      0.46053149088777
  49      0.08667547442717
  50     -0.21329068377152
  51    -0.031326141726702
  52      0.14647051509996
  53     -0.21635941558911
  54     0.017064657672773
  55     -0.33469714529855
  56    -0.042008765275547
  57    -0.076080259971146
  58     -0.23361306055838
 Sym= A
 Ene=              12
 Spin= Alpha
 Occup=    0.00000
   1      0.40853421319244
   2      0.72182716716201
   3      -3.4006814966104
   4      0.16276831740959
   5     0.070210514377364
   6    -0.029422389163991
   7     -0.10020507504224
   8       2.5039982233278
   9      -0.7723742704747
  10      0.19715351938793
  11     0.095833072128717
  12      0.24113056038424
  13      0.18402536487132
  14     -0.29108358120642
  15    -0.057326946515495
  16    -0.064902620210707
  17       1.1488020199042
  18     -0.12851450325937
  19      0.02616806861031
  20    -0.0080402244444119
  21     -0.44527541283556
  22     -0.63841765838279
  23      0.13418861038938
  24    -0.034387013395586
  25    -0.035646667250852
  26     -0.03612812287725
  27     0.027305467956559
  28      0.10966818211331
  29    -0.046676529463161
  30    -0.0045320379014042
  31    -0.040785134369153
  32     0.058132750309697
  33    -0.011147621385679
  34    -0.062920107649873
  35     -0.14801506864562
  36    -0.059219536723925
  37     0.041720458377954
  38    -0.030267372769704
  39    -0.077982653921735
  40     0.027915552929473
  41     0.097203720543056
  42     0.051473924696476
  43    -0.012977893569883
  44     0.087851356925435
  45     -0.21320637488821
  46    -0.031002989701331
  47     -0.26121081715923
  48    -0.018242821279501
  49      0.01695551817184
  50     -0.33463802797885
  51    -0.042186725636449
  52     -0.16486606299077
  53      0.18341128921483
  54       1.6537452471667
  55       1.8215591409451
  56      0.25418752347669
  57      0.43154368617722
  58     -0.17243510456127
 Sym= A
 Ene=              13
 Spin= Alpha
 Occup=    0.00000
   1     -0.28024641768733
   2     -0.53748914511027
   3       2.1115794936999
   4     -0.34622683090118
   5    4.1909432202402e-05
   6    0.0002301005699705
   7       3.6665590509183
   8    3.7429658584626e-05
   9    0.00091147585894853
  10     -0.13373772219489
  11    -0.00042967448532173
  12    0.0011458355139553
  13      0.22975220036527
  14    8.4900599559076e-05
  15      0.16464750699345
  16      0.21134003352147
  17      -3.6231607680534
  18      0.32481142973822
  19    0.00037659112809187
  20    0.00027257505301146
  21       1.7675313514072
  22    0.00071098761699395
  23    0.00025868044412091
  24     0.086950842524243
  25    0.00012669354922962
  26    -0.0025637068962362
  27     -0.14707261039085
  28    0.00033990451058444
  29      0.15193085538061
  30     -0.12385504011348
  31    0.0091341721493161
  32    -0.0003022454786008
  33    0.0041999228788158
  34      0.15427137542988
  35     -0.12352699552732
  36     0.008205250212125
  37    -0.0024086263666161
  38    -0.0023054130261524
  39      0.15204416794832
  40      -0.1239017625614
  41     0.008992580040533
  42    0.0043639353869448
  43    -0.00076160829404779
  44      0.16964582738621
  45      0.49563315397251
  46     -0.29973752059816
  47    -0.031782970109488
  48      0.18198384494485
  49      0.16803292956547
  50       0.4949333295478
  51     -0.30023473459397
  52     -0.14116713238645
  53     -0.11818656112204
  54      0.16861267381223
  55       0.4951366113859
  56     -0.29992794419022
  57      0.17322752850132
  58     -0.06295936813012
 Sym= A
 Ene=              14
 Spin= Alpha
 Occup=    0.00000
   1     0.057320910084091
   2     0.064891489742772
   3      -1.1487439427546
   4     -0.12851692488158
   5     0.022959033534507
   6    -0.014931361124519
   7     -0.44522830026319
   8     -0.51260921240408
   9       0.4038901934691
  10      0.04880740521822
  11      0.06117019320745
  12     0.022161431955287
  13    -0.018973987906249
  14    -0.097751090525433
  15     -0.40853729701739
  16     -0.72184089149877
  17       3.4006123841397
  18      0.16275235150706
  19     0.067713182933101
  20      -0.0347470270935
  21     -0.10015683556774
  22       2.1996457733297
  23      -1.4242565878502
  24     -0.13594279243502
  25     -0.16162842772588
  26     -0.30048305989739
  27     -0.14868080454424
  28      0.26033935689205
  29    -0.016073187985005
  30      0.33589314840516
  31    -0.042319751744223
  32     -0.24628549210785
  33    0.0082114557654732
  34     -0.08875469664562
  35      0.21187988414999
  36     -0.03087097644804
  37     -0.15418953850723
  38      0.21187045292491
  39      -1.6536799441341
  40      -1.8214952997766
  41      0.25417259760568
  42      0.40964131140494
  43     -0.21940521628914
  44     0.063044336751857
  45      0.14833360250139
  46    -0.059280446270194
  47     0.049937336632114
  48    -0.012517268711072
  49     0.046543816620829
  50    0.0041890265339919
  51    -0.040712519688812
  52     0.045936837070436
  53    -0.037421270665079
  54      0.07798521527009
  55     -0.02787301400723
  56     0.097188178760012
  57     0.042978922395931
  58    -0.031207712541011
 Sym= A
 Ene=              15
 Spin= Alpha
 Occup=    0.00000
   1     0.057267890737742
   2     0.064778982761318
   3      -1.1482255363155
   4     -0.12844533492753
   5    0.0015359360165637
   6     0.027519235699702
   7     -0.44513680993526
   8    -0.093096024430253
   9     -0.64551568424536
  10    -0.011182345336027
  11     -0.11537219329343
  12     0.018734374631248
  13    -0.053970046406326
  14    -0.0041711289208474
  15     -0.40846305727533
  16      -0.7216962457979
  17       3.4002723350464
  18       0.1626493098213
  19    -0.0043859844257174
  20     0.076069459906434
  21    -0.099901724960269
  22      0.13272828970147
  23        2.617147290814
  24      0.33935855730205
  25      0.30623178496299
  26    -0.011734754361945
  27      0.12572746609541
  28    0.0095922660566723
  29      -1.6538496891071
  30      -1.8215369297567
  31      0.25426978490017