[Molden Format]
made by pyscf v[2.0.1]
[Atoms] (AU)
C   1   6     0.00000000000000     0.00000000000000     0.00000000000000
C   2   6     2.88195139270757     0.00000000000000     0.00000000000000
H   3   1     3.63065534584939     0.00000000000000     1.92469232395612
H   4   1     3.63065534584939    -1.66683244701491    -0.96234616197806
H   5   1     3.63065534584939     1.66683244701491    -0.96234616197806
H   6   1    -0.74870395314182    -1.80861917410484     0.65828354449729
H   7   1    -0.74870395314182     0.33421931462451    -1.89545192279507
H   8   1    -0.74870395314182     1.47439985948033     1.23716837829778
[GTO]
1 0
 s    8 1.00
                  6665  0.00069158396281299
                  1000  0.0053257961529341
                   228   0.027060721042034
                 64.71    0.10165684614077
                 21.06     0.2745748236174
                 7.495    0.44829431892377
                 2.797    0.28490261071525
                0.5215   0.015194859206082
 s    8 1.00
                  6665  -0.00029326965268655
                  1000  -0.0023180354739745
                   228  -0.011499786038565
                 64.71  -0.046826727009787
                 21.06   -0.12846616875047
                 7.495   -0.30126627246289
                 2.797   -0.25563070233011
                0.5215      1.093793361012
 s    1 1.00
                0.1596                   1
 p    3 1.00
                 9.439   0.056979251590039
                 2.002    0.31320721150073
                0.5456    0.76037674173753
 p    1 1.00
                0.1517                   1
 d    1 1.00
                  0.55                   1

2 0
 s    8 1.00
                  6665  0.00069158396281299
                  1000  0.0053257961529341
                   228   0.027060721042034
                 64.71    0.10165684614077
                 21.06     0.2745748236174
                 7.495    0.44829431892377
                 2.797    0.28490261071525
                0.5215   0.015194859206082
 s    8 1.00
                  6665  -0.00029326965268655
                  1000  -0.0023180354739745
                   228  -0.011499786038565
                 64.71  -0.046826727009787
                 21.06   -0.12846616875047
                 7.495   -0.30126627246289
                 2.797   -0.25563070233011
                0.5215      1.093793361012
 s    1 1.00
                0.1596                   1
 p    3 1.00
                 9.439   0.056979251590039
                 2.002    0.31320721150073
                0.5456    0.76037674173753
 p    1 1.00
                0.1517                   1
 d    1 1.00
                  0.55                   1

3 0
 s    3 1.00
                 13.01   0.033498726389998
                 1.962    0.23480080117413
                0.4446     0.8136829578829
 s    1 1.00
                 0.122                   1
 p    1 1.00
                 0.727                   1

4 0
 s    3 1.00
                 13.01   0.033498726389998
                 1.962    0.23480080117413
                0.4446     0.8136829578829
 s    1 1.00
                 0.122                   1
 p    1 1.00
                 0.727                   1

5 0
 s    3 1.00
                 13.01   0.033498726389998
                 1.962    0.23480080117413
                0.4446     0.8136829578829
 s    1 1.00
                 0.122                   1
 p    1 1.00
                 0.727                   1

6 0
 s    3 1.00
                 13.01   0.033498726389998
                 1.962    0.23480080117413
                0.4446     0.8136829578829
 s    1 1.00
                 0.122                   1
 p    1 1.00
                 0.727                   1

7 0
 s    3 1.00
                 13.01   0.033498726389998
                 1.962    0.23480080117413
                0.4446     0.8136829578829
 s    1 1.00
                 0.122                   1
 p    1 1.00
                 0.727                   1

8 0
 s    3 1.00
                 13.01   0.033498726389998
                 1.962    0.23480080117413
                0.4446     0.8136829578829
 s    1 1.00
                 0.122                   1
 p    1 1.00
                 0.727                   1

[5d]
[7f]
[9g]

[MO]
 Sym= A
 Ene=               0
 Spin= Alpha
 Occup=    1.00000
   1       1.0026234100985
   2    -0.00041207409069142
   3    -0.012707775585191
   4    0.00096765625873149
   5    1.3468145744538e-07
   6    5.8705013223257e-09
   7    -0.00015369775819813
   8    6.3481672871627e-08
   9    2.2068799299164e-09
  10    9.0367427734872e-05
  11    7.4658245442162e-10
  12    6.6838908829576e-09
  13    -0.00015651395072286
  14    -7.2573227607416e-09
  15    -1.1347557776501e-05
  16    -0.00043915406804259
  17    0.0018459523202109
  18    0.0011407365765998
  19    -3.6371500680466e-08
  20    2.021839186752e-08
  21    -0.0005892334630017
  22    -1.9735297823086e-08
  23    8.7000189894065e-09
  24    0.00024974388391284
  25     5.74012943119e-10
  26    3.2897504859532e-09
  27    -0.00043256632991895
  28    -8.0351581429997e-09
  29    3.5166684892271e-05
  30    0.00019278359134111
  31    -3.632821013014e-05
  32    -2.8410818474303e-06
  33    -1.1076761202949e-05
  34    3.5176615974425e-05
  35    0.00019279705571453
  36    -3.6328458165014e-05
  37    1.1011675512039e-05
  38    3.0800110399089e-06
  39    3.5104675951403e-05
  40    0.0001927473203404
  41    -3.6325886690146e-05
  42    -8.171091147732e-06
  43    7.9964444453807e-06
  44    -0.0029106133848734
  45    0.00073761547708657
  46    -0.00021450552308669
  47    -0.00074602798491753
  48    0.00027186892240788
  49    -0.0029104849497105
  50    0.00073767678549086
  51    -0.00021450114057889
  52    0.00013757330130877
  53    -0.00078200692393259
  54    -0.0029104077621162
  55    0.00073770973445887
  56    -0.00021449845551685
  57    0.00060845270144878
  58    0.0005101377519911
 Sym= A
 Ene=               1
 Spin= Alpha
 Occup=    1.00000
   1    -1.1351204392185e-05
   2    -0.00043908032164134
   3    0.0018460058806756
   4    -0.0011406311067975
   5    1.2491459002871e-08
   6    3.3326714855806e-08
   7    0.00058928165123644
   8    7.773004285019e-09
   9    1.5347929189162e-08
  10    0.00024973643437448
  11    -1.902683848874e-09
  12    2.3906196192006e-09
  13    -0.00043255832075724
  14    -4.9705654189406e-09
  15       1.0026234071777
  16    -0.00041197754335769
  17    -0.012707708783723
  18    -0.0009677505822181
  19    -9.1735082625832e-08
  20    -1.0692989082067e-08
  21    0.00015365487492614
  22    -4.2898890019227e-08
  23    -5.7000454614833e-09
  24    9.0359029065393e-05
  25    -2.0613383643425e-09
  26    5.0755949095676e-09
  27    -0.00015650803531903
  28    -4.350152495404e-09
  29    -0.0029104964163235
  30    0.00073765321279563
  31    0.00021449866711687
  32    -3.1791683055911e-07
  33    0.00079401353794635
  34    -0.0029104089729618
  35    0.00073769623306443
  36    0.00021449565512078
  37    -0.0006874756010883
  38    -0.00039727673646465
  39    -0.0029105489013565
  40    0.00073763327764063
  41    0.00021450047687155
  42    0.00068779495724433
  43    -0.00039673689066218
  44    3.5145556074451e-05
  45    0.00019275784686744
  46    3.6330295236255e-05
  47    1.1381361521567e-05
  48    -1.1192534844855e-06
  49    3.5125432497782e-05
  50    0.00019275548698084
  51     3.63295496857e-05
  52    -4.7192088586371e-06
  53    1.0414955059995e-05
  54    3.5184516644976e-05
  55    0.00019278742884303
  56    3.633170598073e-05
  57    -6.6616131948681e-06
  58    -9.2961212560761e-06
 Sym= A
 Ene=               2
 Spin= Alpha
 Occup=    1.00000
   1    -0.0050221304875029
   2      0.18333816084905
   3      0.10566051332405
   4     -0.12357577531214
   5     -0.32584611584491
   6      0.11919017442299
   7     -0.06100152677224
   8     -0.15202045916376
   9      0.05543125006046
  10    -0.0083821488052782
  11    -0.0048429104161841
  12     -0.01197370327204
  13    -0.013301189538418
  14     0.013201762506788
  15    -0.0024755361836781
  16    -0.020005489166694
  17    -0.012556585816786
  18      0.02415144446979
  19    -0.00099854832554617
  20    0.00081523480903212
  21     0.013697310228079
  22     0.006876504772586
  23    -0.00059319927912196
  24    -0.0040375215026381
  25    -0.0058616898212667
  26    -0.0029440321269082
  27    0.0029960853974973
  28     0.015773477342446
  29    -0.0088172613203627
  30    -0.0091523912648321
  31     0.001967950070707
  32    0.00055412223056871
  33    -0.00057291016130617
  34    -0.016006886267104
  35    -0.018171276150718
  36    0.0018147921331712
  37    0.00091364356437832
  38    1.6823657922642e-05
  39     0.023720154152451
  40       0.0426418971146
  41    0.00034152487867096
  42     0.001162410004562
  43    -0.00065860588400088
  44      0.43308591455114
  45        0.160257156783
  46     0.012844087462089
  47     0.028272716598201
  48    -0.010209868444202
  49    -0.019729430149725
  50    -0.037281215776319
  51    -0.0025706686371464
  52    -0.010555632836837
  53    0.0061730325142455
  54    -0.019502790891845
  55    -0.036940454419419
  56    -0.0025817905775508
  57    -0.012146785847342
  58    0.0020142676987732
 Sym= A
 Ene=               3
 Spin= Alpha
 Occup=    1.00000
   1    -0.0024755704532041
   2    -0.020004751078048
   3    -0.012556151293594
   4    -0.024151794134309
   5    -0.00042357653761592
   6    0.0012166079661858
   7    -0.013697485281952
   8    -0.0017941267204763
   9    -0.0066649209162296
  10    0.00065804296215121
  11      0.01682706382696
  12    -0.00097063222677336
  13    0.0057070471493465
  14    -0.00011314369721348
  15    -0.0050224210956246
  16      0.18333806187905
  17      0.10566046508694
  18      0.12357571626369
  19    -0.00055135185343874
  20       0.3469607084511
  21     0.061001506903535
  22    -9.2042453196032e-05
  23       0.1618111486568
  24     0.019557367288566
  25     0.014062002243556
  26    -0.00023162265210563
  27    0.0028297306067084
  28    -3.5428500921439e-05
  29      0.43308595726489
  30      0.16025724791706
  31    -0.012844088241617
  32    -7.5551589484169e-05
  33    -0.030059639461539
  34    -0.019506490663225
  35    -0.036942005374755
  36    0.0025819185014059
  37    0.0022615259255606
  38     0.012103010204443
  39    -0.019725957533817
  40    -0.037279765660736
  41    0.0025705523274214
  42    -0.0021906261679595
  43     0.012030506414723
  44    -0.0088174074800041
  45    -0.0091522221859353
  46    -0.0019679579571556
  47    0.00034882945184114
  48    -0.00071665839146641
  49     0.023721198179089
  50     0.042642195737121
  51    -0.00034148989790171
  52    0.00022132174618176
  53    -0.0013174739880433
  54    -0.016006345108849
  55    -0.018171462019683
  56    -0.0018147816229518
  57    -0.00032834333324374
  58    -0.00085286823832977
 Sym= A
 Ene=               4
 Spin= Alpha
 Occup=    1.00000
   1    -0.0050225950980989
   2      0.18333866503707
   3      0.10566080042029
   4     -0.12357627611373
   5      0.26614369615242
   6      0.22259637821715
   7    -0.061001773938809
   8      0.12401456130727
   9       0.1039382341904
  10    0.00070680622713976
  11    -0.0090117619773908
  12     0.018032993947106
  13    -0.0080537056719089
  14    -0.010794808255248
  15    -0.0024756111470584
  16    -0.020005334480382
  17    -0.012556507507372
  18     0.024151773568203
  19    0.0012075838021594
  20    0.00045432012882775
  21     0.013697476372454
  22    -0.0039508839117911
  23    -0.0056599539052647
  24    -0.0036494847939755
  25    -0.010729524441646
  26    0.0032026849737463
  27    0.0032201155697307
  28    -0.012962964831084
  29    -0.016009196315004
  30    -0.018172340568639
  31    0.0018148811154157
  32    -0.00044217846609498
  33    -0.00079955385214818
  34     0.023719797715728
  35     0.042641669463612
  36    0.00034154571405197
  37    -0.0011515183141109
  38    -0.00067747230642091
  39    -0.0088140261179409
  40    -0.0091509056601614
  41    0.0019678483938002
  42    -0.0007733759587166
  43    -0.00019338277760222
  44    -0.019727763156934
  45      -0.0372803134834
  46    -0.0025706189485363
  47     0.010623901389032
  48    0.0060549049165848
  49    -0.019503155081909
  50    -0.036940934117017
  51    -0.0025818132227873
  52    0.0078177604531806
  53    0.0095123174933594
  54      0.43308586272493
  55       0.1602570486459
  56       0.0128440728766
  57    -0.022978408663006
  58    -0.019379943572572
 Sym= A
 Ene=               5
 Spin= Alpha
 Occup=    1.00000
   1    -0.0024753570951173
   2    -0.020008567380442
   3    -0.012558678633436
   4    -0.024154035856336
   5    0.0012641769620749
   6    -0.00024289555772652
   7    -0.013698497842143
   8    -0.0048754998707673
   9    0.0048855313830423
  10    -0.0045169246947944
  11    -0.0083154309386958
  12    -0.0024795348493077
  13     0.002719046239451
  14     0.014629277449815
  15    -0.0050222431302525
  16      0.18333723189598
  17      0.10565967386272
  18      0.12357941813428
  19      0.30075228325963
  20     -0.17300167607216
  21     0.061003214178326
  22      0.14017852194088
  23    -0.080825271230523
  24    -0.0044560991599058
  25    -0.0070002018964234
  26    -0.015777530831688
  27     -0.01103488515568
  28      0.01219581796431
  29    -0.019504571363696
  30    -0.036940980896029
  31    0.0025819423944848
  32    0.0093507476136951
  33    -0.0080101429362675
  34    -0.019725694942408
  35    -0.037279711241091
  36    0.0025706338027879
  37     0.011514055529798
  38    -0.0041180639749652
  39      0.43308610898562
  40      0.16025742854785
  41    -0.012844005961327
  42    -0.025994636078717
  43     0.015095287497162
  44       0.0237205761019
  45     0.042642453733224
  46    -0.00034159326059495
  47    -0.0012517784321599
  48    0.00046706182415974
  49    -0.016006379211154
  50    -0.018170805035929
  51    -0.0018148631489648
  52    -0.0005744561326116
  53    0.0007106559666297
  54    -0.0088202180477875
  55    -0.0091529161984981
  56    -0.0019681342447578
  57    -0.0007948621495843
  58    5.6385287416642e-05
 Sym= A
 Ene=               6
 Spin= Alpha
 Occup=    1.00000
   1    -0.0050223786141203
   2      0.18333798051105
   3      0.10566014456047
   4     -0.12357938095752
   5     0.059701186437883
   6     -0.34178492743706
   7    -0.061003208308744
   8     0.028005308539923
   9     -0.15936866134021
  10      0.01866754036232
  11     0.013854467659557
  12    -0.0060593104203122
  13    0.0023155715864418
  14    -0.0024068412574733
  15    -0.0024754186034056
  16    -0.020008362369789
  17    -0.012558524944835
  18      0.02415373274353
  19    -0.00020775869452577
  20    -0.0012724094912761
  21     0.013698365562191
  22    -0.0029249933384628
  23    0.0062517930183192
  24    0.00076677589966675
  25     0.016591018783923
  26    -0.00025872662476495
  27    0.0057696463263532
  28    -0.0028104007695973
  29     0.023719379872094
  30     0.042641906080356
  31    0.00034162996553105
  32    -1.0866858940482e-05
  33    0.0013360853201194
  34    -0.0088171169229984
  35    -0.0091518483551371
  36    0.0019680221707188
  37    0.00021902356097678
  38    0.00076631423165788
  39    -0.016008260371139
  40    -0.018171382666984
  41    0.0018149173754816
  42    -0.00047127228216442
  43    0.00078273625912277
  44    -0.019501308724689
  45    -0.036939890512467
  46    -0.0025818254725401
  47    0.0043291107198366
  48    -0.011526568324732
  49      0.43308597211901
  50      0.16025718095372
  51     0.012844003495085
  52    -0.0052943571535606
  53     0.029589868402517
  54    -0.019727740532586
  55    -0.037280422529479
  56    -0.0025706954776189
  57    -6.8295994797643e-05
  58    -0.012228015596069
 Sym= A
 Ene=               7
 Spin= Alpha
 Occup=    1.00000
   1    -0.0024755093681899
   2    -0.020007780933126
   3    -0.012558216520964
   4    -0.024154509424868
   5    -0.00084059321789143
   6    -0.0009762145429637
   7    -0.013698739842539
   8    0.0066696059736534
   9    0.0017781856604367
  10    -0.0030609370453983
  11    -0.0085114365753274
  12    0.0034500895284973
  13    0.0035596505225369
  14    -0.014516096826787
  15    -0.0050225747819661
  16      0.18333768244725
  17      0.10565994336438
  18      0.12357972785582
  19     -0.30020015928857
  20     -0.17395709485223
  21     0.061003377903684
  22     -0.14008613024726
  23    -0.080984921929289
  24    -0.0041086892750074
  25    -0.0070615997051081
  26     0.016009104827811
  27    -0.010834295833681
  28    -0.012160357828149
  29    -0.019724119570242
  30    -0.037278854217223
  31    0.0025705848862543
  32    -0.0093233838527041
  33    -0.0079125121448977
  34      0.43308606279779
  35      0.16025734897776
  36     -0.01284399430798
  37     0.026070219038811
  38     0.014964417652146
  39    -0.019505103118131
  40    -0.036941505869899
  41    0.0025819683426957
  42    -0.011612362078388
  43    -0.0040928755710364
  44    -0.016008235416895
  45    -0.018171778772349
  46    -0.0018149360116146
  47    0.0009026074798343
  48    0.00014211990482089
  49    -0.0088168578782565
  50    -0.0091514720635742
  51    -0.0019680276923827
  52    0.00044626884117051
  53    0.00066037642242873
  54     0.023720720356685
  55     0.042642352927506
  56    -0.0003415962551601
  57    0.0010304071898069
  58    0.00085042735411297
 Sym= A
 Ene=               8
 Spin= Alpha
 Occup=    1.00000
   1    -0.0055339503001361
   2      0.19647504319278
   3      0.14787380302823
   4      0.36758843988549
   5    5.3526043867182e-07
   6    -2.6759187818633e-06
   7       0.1705313091783
   8    2.6357883433253e-07
   9    -1.1811107162696e-06
  10    -0.015946431041884
  11    -4.5900419202154e-08
  12    -3.6246770512241e-08
  13     0.027620239142612
  14    -1.5910219462451e-08
  15    -0.0055342994145104
  16      0.19647694586482
  17      0.14787491390388
  18      -0.3675875088908
  19    9.5993053082472e-08
  20    -3.1843132087564e-06
  21     -0.17053086679503
  22    1.9840512110913e-08
  23    -1.4320354576662e-06
  24    -0.015946587580191
  25    7.2814119818945e-10
  26    -4.1299491943853e-09
  27     0.027620019623377
  28    -2.1026278083231e-08
  29    -0.022406167039858
  30    -0.037523054508693
  31    -0.0094424429584946
  32    -8.2812800081188e-07
  33    -0.0013492414177667
  34    -0.022402345433101
  35    -0.037521678685986
  36    -0.0094425691374152
  37    0.0011691188611779
  38    0.00067393559417272
  39    -0.022402268377493
  40    -0.037521697665399
  41    -0.0094425746377536
  42    -0.0011682948649524
  43    0.0006753825851694
  44    -0.022405972287426
  45    -0.037522759207395
  46    0.0094424556852071
  47    0.0012680735921138
  48    -0.00046072910586193
  49    -0.022402684963517
  50    -0.037521678593074
  51    0.0094425630338655
  52    -0.00023513202870246
  53     0.001328726986309
  54     -0.02240582207446
  55    -0.037522654228635
  56    0.0094424572094524
  57    -0.0010329537226115
  58    -0.00086792603555938
 Sym= A
 Ene=               9
 Spin= Alpha
 Occup=    0.00000
   1     -0.16466548139777
   2     -0.21244191164665
   3       3.6165333817669
   4      0.32586107988148
   5    0.0035734894026545
   6    -0.0016324832602244
   7       1.7696831373012
   8    0.0084703652358087
   9    -0.0052008396714527
  10    -0.081911272335799
  11    0.0005393828204518
  12    0.00023326180323396
  13      0.15032820308376
  14    -0.00095407942655787
  15      0.28247789526196
  16      0.54216364268971
  17      -2.1245652165075
  18     -0.34824938550433
  19    0.0001753537606683
  20    -0.00014840767478363
  21       3.6651976475226
  22    -0.010417035261274
  23    0.0073153198171387
  24      0.13279591211507
  25    0.00084671627384488
  26    0.00020817087164985
  27     -0.22906087526658
  28    -0.0014274792056706
  29     -0.16885374178954
  30     -0.49670169038829
  31     -0.29997145984046
  32    0.0012692921469723
  33      0.18432165213164
  34     -0.16792585869746
  35     -0.49574666243145
  36     -0.30020099104587
  37     -0.15860209529498
  38    -0.093484039315764
  39     -0.16287562165448
  40      -0.4866260544976
  41      -0.3002699766598
  42      0.15829852612867
  43    -0.091297158636034
  44     -0.14317551579591
  45      0.12869531146939
  46     0.010161431661891
  47    0.0064306428972686
  48    -0.0037663395740003
  49     -0.15419290622672
  50      0.12262531020739
  51     0.008281334455889
  52    -0.00059560791473681
  53    0.0034616788336899
  54     -0.15175876203925
  55      0.12375597351892
  56    0.0089689231669486
  57    -0.004151828963323
  58    -0.0018330931168601
 Sym= A
 Ene=              10
 Spin= Alpha
 Occup=    0.00000
   1     0.048490969569359
   2      0.05012831389063
   3       -1.061897980383
   4     -0.12983283111537
   5     0.020313126906579
   6    -0.015343617064758
   7     -0.43860318387026
   8     -0.54396758278587
   9      0.44845763427803
  10     0.043807900050491
  11     0.060599388894145
  12     0.018175708476836
  13    -0.022178875718484
  14     -0.09124869991529
  15     -0.40739475912308
  16     -0.72124572810422
  17       3.3725467307982
  18      0.16374681480466
  19     0.067304590950244
  20    -0.030798145276576
  21    -0.075893833613304
  22       2.1733284736796
  23      -1.4888368316942
  24     -0.13848428204697
  25     -0.16682419204101
  26     -0.29909916279246
  27     -0.15388214999984
  28      0.25454793669635
  29    0.0044173684765361
  30      0.36398201526283
  31    -0.045465261958941
  32      -0.2419091625231
  33    0.0048787082377142
  34     -0.10964880269775
  35      0.18032349958761
  36    -0.028156846012436
  37     -0.16134499421148
  38      0.21296308953366
  39      -1.6506944505012
  40      -1.8232746154159
  41      0.25079608985677
  42      0.41318079204455
  43     -0.21089292544713
  44     0.043174291519624
  45    -0.061032243564692
  46     0.091925158040273
  47     0.032419397668651
  48    -0.030809199875782
  49     0.063908153970405
  50      0.16023850140175
  51    -0.059599235827937
  52     0.052895451632988
  53    -0.012748036165866
  54     0.039053395277801
  55    -0.0012344378180118
  56    -0.038264589471816
  57     0.050564966847405
  58    -0.041501381149329
 Sym= A
 Ene=              11
 Spin= Alpha
 Occup=    0.00000
   1      0.39523578714928
   2      0.69781476215695
   3      -3.2948405113096
   4      0.15931393007666
   5    -0.0093249708043178
   6     0.071632561946149
   7     -0.11874408926526
   8     -0.56943270847361
   9        2.602159981378
  10     -0.32944688473566
  11     -0.30459106882955
  12      0.11355448667406
  13     -0.12280809197491
  14     0.061512696809998
  15     -0.05632018645792
  16    -0.063741776752353
  17       1.1302248922159
  18     -0.12615173013255
  19    -0.005412946749781
  20     0.027327750615587
  21     -0.44116352853636
  22      0.18797502098954
  23     -0.62927992358235
  24     0.015015760344014
  25      0.11561396495667
  26    0.0049314041103958
  27     0.055566518435505
  28    -0.024442226895503
  29    -0.078081498396169
  30      0.03063974154602
  31     0.099225335665287
  32     -0.01263116001608
  33     0.052018206002671
  34    -0.048030228244816
  35    -0.0079161781774799
  36    -0.041672107841145
  37    -0.019137083991094
  38     0.055936708968798
  39    -0.057335790788517
  40     -0.13994801293389
  41    -0.060384698527085
  42    0.0048015644009225
  43     0.053435130075543
  44    -0.0022327735831769
  45     -0.35907131354245
  46    -0.042698949757083
  47    -0.084448101307537
  48     -0.23655246954979
  49       1.6503856739144
  50       1.8256490112287
  51      0.25805954116485
  52    -0.067376734697866
  53      0.45641898822031
  54      0.05232012230772
  55     -0.24975196687573
  56    -0.033830998495035
  57      0.15484412837672
  58     -0.21257517457136
 Sym= A
 Ene=              12
 Spin= Alpha
 Occup=    0.00000
   1      0.38268567383174
   2       0.6674256365495
   3      -3.3810217521603
   4      0.14642094744751
   5      0.11718331498386
   6    -0.042809388408123
   7      0.39545022129916
   8        2.213162489375
   9     -0.76245800055731
  10      0.15807584806157
  11     0.095941215725433
  12      0.20389117844432
  13      0.19312087245072
  14     -0.25153482544708
  15    -0.0020261532984427
  16     0.028039206606111
  17      0.59481263731201
  18     -0.11492517321857
  19    5.0794079406197e-05
  20    0.0022071409906817
  21    -0.064134975442045
  22     -0.30320849836139
  23     0.011318876930144
  24    -0.013847420241267
  25    -0.027560905041402
  26    -0.029766156564192
  27    0.0027998245785043
  28     0.079491521199175
  29    -6.7020236461185e-05
  30    -0.031440452121059
  31    -0.040527751684705
  32     0.027802868631671
  33    0.00097388920072616
  34    -0.0046547973755278
  35     -0.19152968256061
  36    -0.038378354325589
  37     0.017179406841846
  38    -0.019998199763249
  39     -0.10486420031903
  40     -0.12424987995704
  41     0.079307169682489
  42     0.046638900411945
  43    -0.017999907282122
  44      0.73737103949134
  45       3.1932020730315
  46      0.20885680298778
  47       0.5130281376606
  48     -0.19108964240836
  49      0.12107514055769
  50     -0.25895462863375
  51     -0.04310813456206
  52     -0.16984796071272
  53    -0.012954349196737
  54      0.10975535568523
  55     -0.29673735535032
  56    -0.044226792249187
  57     -0.11764699291845
  58      0.11935167134503
 Sym= A
 Ene=              13
 Spin= Alpha
 Occup=    0.00000
   1     -0.28876177017847
   2       -0.550204823474
   3        2.202030175752
   4     -0.35225004906251
   5    -0.0078743555160092
   6    0.0029710788260426
   7        3.665829064755
   8    -0.099860754828414
   9     0.036002400405962
  10     -0.14301250727137
  11    -0.005148827551607
  12    -0.010080951510949
  13      0.22175389173684
  14     0.012927174710849
  15      0.16540326226373
  16      0.21124512528086
  17      -3.6482463494622
  18      0.32929320662531
  19    -0.0011739378863595
  20    0.00050515107196941
  21       1.7779675074524
  22     0.024802782777425
  23    -0.0070380134101376
  24     0.087892479145519
  25    0.0013087382584029
  26    0.0040515243582914
  27     -0.14823413723939
  28    -0.0038919723298476
  29      0.15296360901514
  30     -0.12372069908016
  31     0.010818519610369
  32    -0.0038497477106129
  33    0.0046425894301809
  34      0.15314218601132
  35     -0.11900876315189
  36     0.011407768032581
  37    -0.0052779751831814
  38    -0.0009744286155344
  39       0.1558899045211
  40     -0.12612183461769
  41    0.0041293529244092
  42    0.0016799684422289
  43    -0.0004508999095707
  44      0.10199412090306
  45      0.42727619653094
  46     -0.31063453194876
  47      0.15420623899333
  48    -0.056093588502623
  49      0.17473266146995
  50      0.51036966900402
  51     -0.29725143702123
  52    -0.021562393736775
  53       0.1843890035583
  54      0.17382164875832
  55      0.51122059485945
  56     -0.29744366664011
  57     -0.13511074924665
  58     -0.12693041724312
 Sym= A
 Ene=              14
 Spin= Alpha
 Occup=    0.00000
   1     0.061364133682031
   2     0.072856722534874
   3      -1.1751638674955
   4     -0.12763138501672
   5    -0.027387102267688
   6    -0.010468009956708
   7     -0.44510607289446
   8      0.63890868128911
   9      0.21219076238007
  10     0.022173189291901
  11     0.052409167580925
  12     -0.03810734177363
  13    -0.033884182051039
  14      0.10128657382022
  15     -0.40907136445301
  16     -0.72287781023566
  17       3.4076437742729
  18      0.16155695764116
  19    -0.060997909453688
  20    -0.044073993983432
  21     -0.10240570308115
  22       -2.369873814406
  23      -1.1292779234935
  24     -0.11005899356623
  25      -0.1385562009506
  26      0.31666696325294
  27     -0.13374090405171
  28     -0.27198258256226
  29     -0.10937293187534
  30      0.18020165392784
  31    -0.028613901624369
  32      0.26542119020094
  33     0.031702909152662
  34       -1.651890295867
  35      -1.8201066489996
  36      0.25333771677488
  37     -0.38858791515445
  38     -0.25329501386506
  39    0.0020681837106787
  40      0.36563381829516
  41      -0.0440142885816
  42      0.12488921710135
  43      0.20645059627067
  44     0.072595759828076
  45      0.17218094274562
  46    -0.059758798960162
  47     -0.03350809411881
  48    -0.035810541507517
  49     0.045492299670708
  50    -0.0055862957120433
  51    -0.038722701733867
  52    -0.058567077817268
  53    -0.020726484408446
  54     0.078713198220558
  55    -0.029014928177366
  56     0.096551216139638
  57    -0.051702379510317
  58    -0.017692035695338
 Sym= A
 Ene=              15
 Spin= Alpha
 Occup=    0.00000
   1     0.061124575894626
   2     0.072222618579749
   3      -1.1753495347502
   4     -0.12757420390235
   5    0.0015616365253404
   6     0.028370879156003
   7     -0.44621800727688
   8     -0.11002683447049
   9     -0.65439966288669
  10    -0.010091797787443
  11     -0.11424957050846
  12      0.01931186323025
  13    -0.052991112914473
  14    -0.0075465368161956
  15     -0.40932389527512
  16     -0.72333402143292
  17       3.4096770848444
  18      0.16164655523144
  19    -0.0064589123738107
  20     0.074906389778407
  21     -0.10380403301432
  22       0.2021954928384
  23       2.6154071533273
  24      0.33779840958607
  25       0.3051892461321
  26    -0.023086756358113
  27      0.12513819053405
  28     0.017839669152506
  29      -1.6517595997418
  30      -1.8192954364824
  31      0.25337206612042
  32    -0.023347648989085