[Molden Format]
made by pyscf v[2.0.1]
[Atoms] (AU)
C   1   6     0.00000000000000     0.00000000000000     0.00000000000000
C   2   6     2.88195139270757     0.00000000000000     0.00000000000000
H   3   1     3.63065534584939     0.00000000000000     1.92469232395612
H   4   1     3.63065534584939    -1.66683244701491    -0.96234616197806
H   5   1     3.63065534584939     1.66683244701491    -0.96234616197806
H   6   1    -0.74870395314182     1.23716837829778    -1.47439985948033
H   7   1    -0.74870395314182     0.65828354449729     1.80861917410484
H   8   1    -0.74870395314182    -1.89545192279507    -0.33421931462451
[GTO]
1 0
 s    8 1.00
                  6665  0.00069158396281299
                  1000  0.0053257961529341
                   228   0.027060721042034
                 64.71    0.10165684614077
                 21.06     0.2745748236174
                 7.495    0.44829431892377
                 2.797    0.28490261071525
                0.5215   0.015194859206082
 s    8 1.00
                  6665  -0.00029326965268655
                  1000  -0.0023180354739745
                   228  -0.011499786038565
                 64.71  -0.046826727009787
                 21.06   -0.12846616875047
                 7.495   -0.30126627246289
                 2.797   -0.25563070233011
                0.5215      1.093793361012
 s    1 1.00
                0.1596                   1
 p    3 1.00
                 9.439   0.056979251590039
                 2.002    0.31320721150073
                0.5456    0.76037674173753
 p    1 1.00
                0.1517                   1
 d    1 1.00
                  0.55                   1

2 0
 s    8 1.00
                  6665  0.00069158396281299
                  1000  0.0053257961529341
                   228   0.027060721042034
                 64.71    0.10165684614077
                 21.06     0.2745748236174
                 7.495    0.44829431892377
                 2.797    0.28490261071525
                0.5215   0.015194859206082
 s    8 1.00
                  6665  -0.00029326965268655
                  1000  -0.0023180354739745
                   228  -0.011499786038565
                 64.71  -0.046826727009787
                 21.06   -0.12846616875047
                 7.495   -0.30126627246289
                 2.797   -0.25563070233011
                0.5215      1.093793361012
 s    1 1.00
                0.1596                   1
 p    3 1.00
                 9.439   0.056979251590039
                 2.002    0.31320721150073
                0.5456    0.76037674173753
 p    1 1.00
                0.1517                   1
 d    1 1.00
                  0.55                   1

3 0
 s    3 1.00
                 13.01   0.033498726389998
                 1.962    0.23480080117413
                0.4446     0.8136829578829
 s    1 1.00
                 0.122                   1
 p    1 1.00
                 0.727                   1

4 0
 s    3 1.00
                 13.01   0.033498726389998
                 1.962    0.23480080117413
                0.4446     0.8136829578829
 s    1 1.00
                 0.122                   1
 p    1 1.00
                 0.727                   1

5 0
 s    3 1.00
                 13.01   0.033498726389998
                 1.962    0.23480080117413
                0.4446     0.8136829578829
 s    1 1.00
                 0.122                   1
 p    1 1.00
                 0.727                   1

6 0
 s    3 1.00
                 13.01   0.033498726389998
                 1.962    0.23480080117413
                0.4446     0.8136829578829
 s    1 1.00
                 0.122                   1
 p    1 1.00
                 0.727                   1

7 0
 s    3 1.00
                 13.01   0.033498726389998
                 1.962    0.23480080117413
                0.4446     0.8136829578829
 s    1 1.00
                 0.122                   1
 p    1 1.00
                 0.727                   1

8 0
 s    3 1.00
                 13.01   0.033498726389998
                 1.962    0.23480080117413
                0.4446     0.8136829578829
 s    1 1.00
                 0.122                   1
 p    1 1.00
                 0.727                   1

[5d]
[7f]
[9g]

[MO]
 Sym= A
 Ene=               0
 Spin= Alpha
 Occup=    1.00000
   1       1.0026308455283
   2    -0.00039788581632729
   3     -0.01275325379662
   4    0.0009722094311562
   5    -1.7359067588645e-07
   6    -1.2559140430876e-08
   7    -0.00016455360961293
   8    -8.3708125710686e-08
   9    -4.5944453190404e-09
  10    8.9511437959467e-05
  11    -8.5928091271378e-10
  12    3.6947687640738e-09
  13    -0.00015505529957354
  14    9.6082856474752e-09
  15    -2.3910768800462e-05
  16    -0.00046142573156398
  17    0.0019552932346853
  18    0.0011454250232345
  19    5.6417779962374e-08
  20    -2.8486265361259e-08
  21    -0.00058229708964364
  22    3.2632222914587e-08
  23    -1.1591104052557e-08
  24    0.0002573908787078
  25    -6.1397942143598e-10
  26    -3.4491986443984e-09
  27    -0.00044581862052809
  28    1.0529308057372e-08
  29    1.8864104437153e-05
  30    0.00017163999869777
  31    -2.7627503097596e-05
  32    -4.9214161662406e-06
  33    -1.0664684160457e-05
  34    1.8847625848257e-05
  35    0.00017162296367711
  36    -2.7627577766508e-05
  37    1.169853360655e-05
  38    1.0671208029193e-06
  39    1.8953562991898e-05
  40    0.00017168967841936
  41    -2.7630656623459e-05
  42    -6.7770928205175e-06
  43    9.5979376058659e-06
  44    -0.0029102305097402
  45    0.00074180138779271
  46    -0.0002151125043956
  47    0.00050872098365746
  48    -0.0006069925937762
  49    -0.0029101998379988
  50    0.00074181882706541
  51    -0.00021511171633024
  52    0.00027130122643467
  53    0.00074406367878963
  54    -0.0029099840640891
  55    0.00074191609719855
  56    -0.00021510436460577
  57    -0.00078001951780706
  58    -0.00013707075197736
 Sym= A
 Ene=               1
 Spin= Alpha
 Occup=    1.00000
   1    -2.390762536981e-05
   2    -0.00046162315282111
   3    0.0019551597406201
   4    -0.0011455749903582
   5    -5.6254139406499e-08
   6    -4.8670931267268e-08
   7    0.00058222829270734
   8    -3.376895342883e-08
   9    -2.5317736746661e-08
  10    0.00025739575457968
  11    7.1606473876672e-09
  12    -1.7619131449686e-09
  13    -0.00044583124536906
  14    1.0754626678874e-08
  15       1.0026308487282
  16    -0.00039795081691855
  17    -0.012753309207027
  18    -0.00097199475359361
  19    1.7968716838403e-07
  20    1.0787698355859e-07
  21    0.00016465228568102
  22    8.6511058931024e-08
  23    5.2980705849314e-08
  24    8.9533913402473e-05
  25    6.6111955805183e-09
  26    -9.7436100835285e-09
  27    -0.00015506690159695
  28    9.8325572195559e-09
  29    -0.0029100044086294
  30    0.00074191435811267
  31    0.00021511061784893
  32    -4.5440591766721e-07
  33    0.00079197195299995
  34    -0.0029102883437811
  35    0.00074178280820752
  36    0.00021511992437222
  37    -0.00068564939811179
  38    -0.00039639091848621
  39    -0.0029100106432294
  40    0.00074191056819997
  41    0.00021511059776414
  42    0.00068610101729439
  43    -0.00039558270169122
  44    1.8838990213828e-05
  45    0.00017165784202639
  46    2.762225235191e-05
  47    -1.0624256290972e-05
  48    4.998239810501e-06
  49    1.8771557487572e-05
  50    0.00017161740990689
  51    2.761974713952e-05
  52    9.8080382249766e-07
  53    -1.1696564339655e-05
  54    1.8908727256773e-05
  55    0.00017170184426739
  56    2.7623828890987e-05
  57    9.6435293770667e-06
  58    6.6983531417559e-06
 Sym= A
 Ene=               2
 Spin= Alpha
 Occup=    1.00000
   1    -0.0051266120894614
   2      0.18298957901325
   3      0.10651698202907
   4     -0.12362403831572
   5      0.22252857308067
   6     -0.26673184816319
   7    -0.060451621425332
   8      0.10532374563404
   9     -0.12575417370962
  10      0.00676438166977
  11     0.010621791614987
  12    -0.017460701826561
  13    -0.0047287990818629
  14    -0.0088290162109066
  15    -0.0024285789673328
  16    -0.020146645174262
  17    -0.013305998736559
  18     0.024350833018826
  19    -0.00057385999463114
  20    -0.00045542126559556
  21     0.014618398313697
  22    -0.010368238440771
  23    0.0073144507296364
  24    -0.00077352065319159
  25     0.012811370176973
  26    -0.00047054239145135
  27    0.0049386341128531
  28    -0.010492308222626
  29     0.018578968597124
  30     0.032722091963232
  31    0.00077926593676901
  32    -7.5248745957681e-05
  33    0.0009334522461012
  34    0.0038732374513241
  35    0.0082624116996517
  36    0.0016627351675187
  37    -0.0002305341559793
  38    0.00032194899303847
  39    -0.023030750158749
  40    -0.026455226342374
  41    0.0012887253190665
  42    -0.00065242173780749
  43    0.00054885768512855
  44      0.43303664272094
  45       0.1600168761289
  46     0.012703700877826
  47    -0.019517469969721
  48     0.023053361527383
  49     -0.01985596477381
  50    -0.037025963154174
  51    -0.0025661934919655
  52    0.0061229311858676
  53    -0.010505908598292
  54    -0.019437882451553
  55    -0.036417825570651
  56    -0.0025843109828216
  57    0.0094634074737365
  58    -0.0078738483676641
 Sym= A
 Ene=               3
 Spin= Alpha
 Occup=    1.00000
   1    -0.0024286648452497
   2    -0.020146660896169
   3    -0.013305935799365
   4    -0.024349759032636
   5    0.00038401712924445
   6    -0.00062506315917173
   7    -0.014617893131578
   8     0.012244858783387
   9    0.0033269168408944
  10    -0.001400097122857
  11    -0.0084502792848596
  12    0.0015170668896874
  13    0.0045769810675713
  14    -0.014241224634981
  15    -0.0051264741259345
  16      0.18299009114025
  17      0.10651735293095
  18      0.12362322179597
  19     -0.30033432006888
  20     -0.17453972159465
  21     0.060451235509358
  22     -0.14198158394773
  23    -0.082148832145486
  24    -0.0036635033906485
  25    -0.0069615977406288
  26      0.01562130740427
  27    -0.010749276619638
  28    -0.011929380620675
  29    -0.019858554710837
  30    -0.037027103992432
  31    0.0025662573736843
  32    -0.0093468491298746
  33    -0.0077780333958632
  34      0.43303659016175
  35      0.16001676876906
  36    -0.012703722326609
  37     0.026225194643327
  38     0.014987613596508
  39    -0.019435291615222
  40    -0.036416831812018
  41    0.0025841970975602
  42    -0.011585857031682
  43    -0.0041622957937211
  44      0.00387348574973
  45    0.0082622870041025
  46    -0.0016626952895574
  47    0.00032672818723398
  48    0.00022369724222186
  49     0.018578237063311
  50     0.032721914293207
  51    -0.00077927188671738
  52    0.00039001179783648
  53    0.00085147509920336
  54     -0.02303134117458
  55    -0.026455366010498
  56    -0.0012887169475166
  57    0.00080074745620212
  58    0.00029258111959871
 Sym= A
 Ene=               4
 Spin= Alpha
 Occup=    1.00000
   1    -0.0051266593384736
   2      0.18298984286528
   3      0.10651702010855
   4     -0.12362589259985
   5      0.11973260167887
   6      0.32608029317958
   7    -0.060452477517143
   8     0.056244629324848
   9      0.15408959895635
  10     0.015321514639473
  11    -0.012956965044423
  12     0.011755951074528
  13    0.00021144979696373
  14    -0.0047843050822474
  15    -0.0024284109032692
  16     -0.02014855767238
  17    -0.013307247151673
  18     0.024351623315466
  19    0.0006801125051713
  20    -0.00026836916825785
  21     0.014618763496113
  22    -0.0011509784634336
  23    -0.012635924952637
  24    -0.0027580671385303
  25    -0.015492205891801
  26    0.0017936799923546
  27    0.0037927917942633
  28    -0.0058488820165444
  29    -0.023030578265233
  30    -0.026454786503684
  31    0.0012887544958253
  32    -0.00014915166413505
  33    -0.00083938284628556
  34     0.018578796533346
  35     0.032722289361165
  36    0.00077930652767161
  37    -0.00077084961533035
  38    -0.00053188861994861
  39    0.0038711897340559
  40    0.0082617658793328
  41    0.0016628356248075
  42    -0.00016340972866726
  43    -0.0003606971269425
  44    -0.019436183500114
  45    -0.036417050902785
  46    -0.0025842975630059
  47    0.0020871696946001
  48     0.012132550502651
  49      0.43303660234779
  50      0.16001677798097
  51     0.012703661311542
  52    -0.010206052149019
  53    -0.028429344884103
  54    -0.019855444923941
  55    -0.037025876712476
  56    -0.002566216541309
  57    0.0060369900130056
  58     0.010555546836367
 Sym= A
 Ene=               5
 Spin= Alpha
 Occup=    1.00000
   1    -0.002428869214765
   2    -0.020146430544158
   3    -0.013305806712795
   4    -0.024350052475318
   5    0.00034977944561349
   6    0.00064730553186164
   7    -0.014618046169123
   8    -0.0090033653247277
   9    0.0089419534176447
  10    -0.0039355578775871
  11    -0.0081082373832521
  12    0.0001733775879395
  13    0.0031131357126942
  14     0.014438702893034
  15    -0.0051270955875337
  16      0.18299067299255
  17      0.10651769542071
  18      0.12362368790158
  19      0.30132200110735
  20     -0.17282784787026
  21     0.060451467553926
  22      0.14213330083067
  23    -0.081885586802761
  24    -0.0042762013965763
  25    -0.0068504750337364
  26    -0.015212791688557
  27    -0.011103038803966
  28     0.011993548044558
  29    -0.019435482556223
  30    -0.036417150430701
  31    0.0025842076843032
  32    0.0093975504190321
  33    -0.0079525328891388
  34    -0.019857011269438
  35    -0.037026406635034
  36    0.0025662143320612
  37     0.011409482521541
  38    -0.0042055449368212
  39      0.43303657477303
  40      0.16001670763367
  41    -0.012703709045343
  42    -0.026092290685567
  43     0.015217862673694
  44    -0.023032321339563
  45    -0.026455813777111
  46    -0.0012887595247759
  47    -0.00065369087769991
  48    0.00054718749035443
  49    0.0038757037032977
  50    0.0082632854390509
  51    -0.0016626285048361
  52    -0.00035714055084707
  53    0.00017099834521314
  54     0.018577650400515
  55     0.032721557260273
  56    -0.00077929674688753
  57    -0.00093242451382394
  58    -8.7914324213035e-05
 Sym= A
 Ene=               6
 Spin= Alpha
 Occup=    1.00000
   1    -0.0051271466569447
   2      0.18298985150441
   3      0.10651701412566
   4     -0.12362621886526
   5     -0.34225978969161
   6     -0.05934969575057
   7    -0.060452648942692
   8     -0.16156771603742
   9    -0.028336077157077
  10    -0.010869506470981
  11    0.0023353018304401
  12    0.0057046535370121
  13     -0.01490993165962
  14     0.013613241553519
  15    -0.0024286865051556
  16      -0.0201476690228
  17    -0.013306737332782
  18     0.024352379165528
  19    -0.00010675663666919
  20    0.00072544129088434
  21     0.014619133639909
  22     0.011518920838022
  23    0.0053222865985778
  24    -0.0034638674910011
  25    0.0026809616029323
  26    -0.0013231152196951
  27    0.0033852487561078
  28     0.016341104533537
  29    0.0038739164235933
  30    0.0082628873122909
  31    0.0016627585372601
  32    0.00039410478759001
  33    3.8657908893625e-05
  34    -0.023031556942732
  35    -0.026455369810986
  36    0.0012888021697792
  37    0.00080147817465368
  38    0.00029056410068023
  39      0.01857911992927
  40     0.032722242226733
  41    0.00077930668754039
  42    0.00084603490333621
  43    -0.00040153257889189
  44    -0.019854371475638
  45    -0.037025309753956
  46    -0.0025661900828565
  47    -0.012159910784487
  48    -4.9556258116665e-05
  49    -0.019436969255055
  50    -0.036417552161802
  51    -0.0025843304985213
  52    -0.011550656653146
  53    -0.0042587252433182
  54      0.43303667980051
  55      0.16001689079412
  56     0.012703648322065
  57     0.029723571574842
  58    0.0053759374440318
 Sym= A
 Ene=               7
 Spin= Alpha
 Occup=    1.00000
   1    -0.0024286581309319
   2    -0.020147966028656
   3    -0.013306783223245
   4    -0.024350274555195
   5    -0.00073330584378667
   6    -2.0379200205691e-05
   7    -0.014618142742542
   8    -0.0032412133885841
   9    -0.012267938648855
  10    -0.0016600260329134
  11     0.016558361153136
  12    -0.0016903618693268
  13    0.0044268957224541
  14    -0.00019754528868414
  15    -0.0051270952828535
  16      0.18299092098278
  17      0.10651777367142
  18      0.12362478197117
  19    -0.00098868960184461
  20      0.34736587026502
  21     0.060451966392533
  22    -0.00015219612932165
  23      0.16403354758558
  24     0.019155799350903
  25      0.01381191647943
  26    -0.00040845194271223
  27    0.0024252910622923
  28    -6.423158738125e-05
  29      0.43303653856545
  30      0.16001662761927
  31    -0.012703688907034
  32    -0.0001329437815559
  33    -0.030205539682622
  34    -0.019433876929068
  35    -0.036416372405437
  36    0.0025841805484043
  37    0.0021883970286807
  38     0.012114829486804
  39    -0.019857170033416
  40    -0.037026654551811
  41    0.0025662410955249
  42    -0.0020626711225536
  43      0.01198366057688
  44     0.018577948730062
  45     0.032721931716624
  46    -0.00077930519510438
  47    0.00054242056849342
  48    -0.00076353885345451
  49    -0.023032005904554
  50    -0.026455377272573
  51    -0.0012887658503706
  52    -0.00014696073045819
  53    -0.00083968381206948
  54    0.0038730369093459
  55    0.0082622923643362
  56    -0.0016627327028749
  57    3.0304005399607e-05
  58    -0.00039482413592043
 Sym= A
 Ene=               8
 Spin= Alpha
 Occup=    1.00000
   1    -0.0054992194830689
   2      0.19692067804251
   3      0.14777341820886
   4      0.36719590031026
   5    -9.2945036171907e-07
   6    9.9705210796673e-07
   7       0.1704211988254
   8    -4.466414351707e-07
   9    4.4201304095506e-07
  10    -0.016043762411623
  11    -1.8546241883269e-09
  12    6.3740847485325e-08
  13     0.027788580367798
  14    3.6659022343517e-08
  15    -0.0054986336279376
  16      0.19691825159987
  17       0.1477719787926
  18     -0.36719708730556
  19     6.01855991068e-09
  20    7.9604887646394e-07
  21     -0.17042174589432
  22    4.4689500818364e-08
  23    3.4856822412282e-07
  24    -0.016043792424366
  25    -1.6355375444475e-08
  26     2.12772642437e-10
  27     0.027788730717315
  28    4.3891530787364e-08
  29     -0.02219690882217
  30    -0.037367726630996
  31    -0.0094807772325479
  32    -7.1521714270667e-07
  33    -0.0014045009984429
  34    -0.022197898664168
  35    -0.037368093451499
  36    -0.009480745569243
  37    0.0012166343480997
  38    0.00070162092761766
  39    -0.022197778184149
  40    -0.037367944677461
  41    -0.0094807446277875
  42    -0.0012159151211854
  43    0.00070285924878149
  44    -0.022197095807639
  45    -0.037368085234735
  46    0.0094807620617438
  47    -0.00090340192415008
  48    0.0010755140104173
  49    -0.022195473049059
  50      -0.0373674729566
  51    0.0094808187929951
  52    -0.00047978898784285
  53    -0.0013201963316241
  54    -0.022195301763337
  55    -0.037367346944323
  56    0.0094808217642488
  57    0.0013832082317562
  58    0.00024466028200587
 Sym= A
 Ene=               9
 Spin= Alpha
 Occup=    0.00000
   1     -0.16406285800297
   2      -0.2103102741666
   3       3.6235331081264
   4      0.32343319985033
   5    0.0002086625299606
   6    0.00026986877019492
   7        1.766693824944
   8    0.00020989816115947
   9    0.00077711870608092
  10    -0.083485120208805
  11    -0.00012249538759366
  12    0.0011230643176497
  13      0.14864444353769
  14    -0.00018536005529844
  15      0.27660819090692
  16      0.52991991871144
  17      -2.0899498160292
  18     -0.34805000114696
  19    -0.00012010957915329
  20    -5.4930493804499e-05
  21       3.6692015676578
  22    0.00015727089955934
  23    -0.00049572403383003
  24       0.1332780172778
  25    0.00018592547602439
  26    0.00066481152583845
  27     -0.23246181079539
  28    -3.3346846368119e-05
  29     -0.16722842287563
  30     -0.50260145747306
  31     -0.29828352993931
  32    -0.00037728436125739
  33      0.18366539729824
  34     -0.16795648846824
  35     -0.50268771942996
  36     -0.29796421663983
  37     -0.15916763010017
  38    -0.092153235364564
  39     -0.16756319811323
  40     -0.50295394544419
  41     -0.29813868985543
  42      0.15905222733512
  43    -0.091938101199132
  44     -0.15246906184388
  45      0.12405789595426
  46    0.0092723868103771
  47    0.0005206381785114
  48    0.0025286429953402
  49     -0.15394836543761
  50      0.12365600439288
  51    0.0087237609823426
  52    -0.0016980721493618
  53    -0.00049483047349026
  54      -0.1520724810501
  55      0.12397218286082
  56    0.0093915005050582
  57    0.0019746941151137
  58    -0.00082349581969414
 Sym= A
 Ene=              10
 Spin= Alpha
 Occup=    0.00000
   1     0.061210028972441
   2     0.071039812037301
   3      -1.1911414618479
   4     -0.12817868854706
   5    0.0025530069994471
   6      0.02760203816405
   7     -0.43682525942837
   8     -0.16821230320254
   9     -0.84209622230122
  10     0.024275469917189
  11     -0.11567667988794
  12     0.027613334993112
  13    -0.023192407061742
  14    -0.0049956170998483
  15     -0.40739538163486
  16     -0.71831471892738
  17       3.4053221709552
  18      0.16653546116057
  19    -0.0050257567073592
  20     0.080148892485893
  21    -0.099314956917034
  22      0.19213061659903
  23       2.6920322127312
  24      0.34157181958039
  25      0.29680107470989
  26    -0.021096359469859
  27      0.12332612402569
  28     0.010788058248783
  29      -1.6686570818751
  30      -1.8709259454153
  31       0.2562172376773
  32    -0.021185756236073
  33      0.46817585785954
  34    -0.0029063951891422
  35      0.38830292884208
  36    -0.044517947770221
  37      0.11851787858792
  38     -0.21555627382958
  39    -0.098855757461688
  40       0.2064613247078
  41    -0.030148174795371
  42     -0.10580844472215
  43     -0.24632527223633
  44     0.069321789816527
  45    -0.071650756216548
  46       0.0649188272799
  47     0.012335418869419
  48     0.059478143610698
  49     0.099332862976163
  50       0.3603973886904
  51    -0.052305298531737
  52    -0.011399667831749
  53      0.02925905804355
  54     0.042609655004355
  55     -0.12917103400154
  56    0.00046828984791094
  57    -0.0023093768231122
  58      0.06303698410252
 Sym= A
 Ene=              11
 Spin= Alpha
 Occup=    0.00000
   1      0.40746478468334
   2      0.71843192979005
   3      -3.4055166306296
   4      0.16669885723025
   5     0.079488140342756
   6    0.0083838101692826
   7    -0.099780411341118
   8       2.6167841032955
   9        0.655874407169
  10      0.26158653388929
  11    -0.061905409372313
  12     -0.10440982495456
  13       0.2237488137948
  14     -0.29025172754409
  15    -0.061140571050128
  16    -0.070875638398868
  17        1.191745421275
  18     -0.12839333926266
  19     0.026755531822532
  20    0.0076331017883288
  21     -0.43702600540632
  22      -0.7997025809674
  23     -0.31109951056839
  24    -0.014903299618176
  25      0.02523869871901
  26    -0.029391407432462
  27     0.028490665599616
  28      0.11311996583816
  29    -0.043694683333823
  30      0.12893303146559
  31    0.00080651998777182
  32     0.062494994295128
  33    0.0090973674611375
  34    -0.098736753649432
  35     -0.36019296847169
  36    -0.052425738764089
  37     0.030833040751218
  38    -0.0057264869874472
  39    -0.069039929437711
  40     0.071642949456991
  41     0.064825836621773
  42     0.056488082841941
  43     0.022856679089993
  44      0.09824582857126
  45     -0.20637584494787
  46    -0.030494004838505
  47     -0.22495957091036
  48      -0.1479306207244
  49    0.0049552616128015
  50      -0.3881719431754
  51    -0.043838377359646
  52      -0.2334676927676
  53     0.078570474076619
  54       1.6667938924256
  55       1.8705876124348
  56      0.25536182205105
  57      0.46419153737275
  58     0.059461434486316
 Sym= A
 Ene=              12
 Spin= Alpha
 Occup=    0.00000
   1     -0.40739059973374
   2      -0.7183052605999
   3       3.4052574998452
   4     -0.16656901687133
   5      0.03215119168188
   6     0.073603192304367
   7     0.099371032898004
   8      0.73984825664787
   9       2.5954920690853
  10      0.25738040283342
  11     -0.28263167240035
  12      0.24593912779844
  13     0.074733078471663
  14    -0.091337614786493
  15     0.061194942919511
  16      0.07100756055376
  17      -1.1911188764234
  18      0.12818727421944
  19    0.0070312250265653
  20      0.02681013568773
  21      0.43679401767438
  22     -0.12984982093423
  23     -0.84888024108946
  24     0.037745986494358
  25      0.11039203046164
  26    -0.015078592038356
  27    -0.015418438657202
  28     0.034850299751995
  29     0.099338894632127
  30      0.36040834159924
  31     0.052319734443689
  32     0.020710346710569
  33     0.023587758715916
  34     0.069307075866495
  35    -0.071628183880383
  36    -0.064904332475713
  37    0.0087389451296241
  38     0.060117335607123
  39     0.042609758703876
  40     -0.12920497110812
  41    -0.0004735374968089
  42     0.023724236508107
  43     0.058453682540114
  44    -0.0027999781040688
  45      0.38847711605744
  46     0.044522759808986
  47      -0.1850979321805
  48     -0.16198472040354
  49      -1.6686530057191
  50      -1.8708985701274
  51      -0.2562195206672
  52      0.18008189478422
  53      0.43268062631297
  54    -0.098953397807983
  55      0.20630892953214
  56     0.030122097018445
  57     0.015165532989803
  58     -0.26768858089817
 Sym= A
 Ene=              13
 Spin= Alpha
 Occup=    0.00000
   1     -0.27662669959038
   2     -0.52995681986577
   3       2.0900312410685
   4     -0.34808633185162
   5    -8.6381674927466e-05
   6    0.00011609670232994
   7       3.6691627102702
   8    0.00016605892636954
   9    0.00024219794464642
  10     -0.13382822485437
  11    0.0001443934143248
  12    0.0010232136006954
  13      0.23215099342858
  14    0.00010790960033697
  15      0.16404646352579
  16      0.21027786634002
  17      -3.6234668751376
  18      0.32343986384508
  19    9.6688601413588e-05
  20    -0.00033752813741645
  21       1.7666379760199
  22    -3.13795343166e-05
  23    -0.00068574228267471
  24     0.083269954568164
  25    -0.00019826976168209
  26    -0.00042156724411152
  27     -0.14876253757775
  28    0.00012417524808234
  29      0.15393423471391
  30     -0.12370719835255
  31    0.0087320975236234
  32    -0.0014339278648764
  33    0.0010387075824539
  34      0.15246639628041
  35     -0.12402627601399
  36    0.0092859547262402
  37    -0.00037810137344343
  38    -0.0025616570054614
  39      0.15208709176282
  40     -0.12395431310056
  41    0.0093905405676579
  42    0.0021264855667572
  43    9.0738568987486e-05
  44      0.16792925780364
  45      0.50266084374375
  46     -0.29796520569252
  47     -0.11803053663478
  48      0.14104828086677
  49      0.16725773740509
  50      0.50267231584777
  51     -0.29827218000883
  52    -0.063157814829057
  53     -0.17245540799842
  54      0.16747800763798
  55      0.50283686941708
  56     -0.29814906587835
  57      0.18088181975589
  58     0.032002942592652
 Sym= A
 Ene=              14
 Spin= Alpha
 Occup=    0.00000
   1      0.06114127749512
   2     0.070880632930625
   3      -1.1915792113553
   4     -0.12835536616338
   5    -0.025534825342509
   6    -0.011580913607955
   7     -0.43707276109768
   8      0.81265663237547
   9      0.27481197852456
  10    -0.010131067183191
  11      0.05344819775781
  12    -0.0052079891957399
  13    -0.043215798166937
  14      0.10301874604541
  15     -0.40743150195951
  16     -0.71836863110132
  17       3.4054437134779
  18      0.16658362214077
  19    -0.066579146749225
  20    -0.043911779365811
  21    -0.099597569436169
  22       -2.426723229521
  23      -1.1784460234586
  24     -0.10407155779182
  25     -0.13888685426569
  26      0.31741515901141
  27     -0.13267763899128
  28     -0.26231612365105
  29     -0.10054006130181
  30      0.20617924769646
  31    -0.029631747053171
  32      0.26687752323235
  33     0.032226373052228
  34      -1.6664986964803
  35       -1.870645470682
  36       0.2552054948009
  37     -0.39438959752192
  38     -0.25162764362653
  39    -0.0028632477329674
  40      0.38836360162841
  41    -0.044690331518812
  42       0.1280090954628
  43      0.21137646330869
  44     0.043054079049842
  45      -0.1291643455977
  46    0.00059200251575175
  47    -0.053824712448683
  48    -0.033564797907176
  49     0.069923989867095
  50    -0.071416717562477
  51     0.065076359100094
  52    -0.058012399607358
  53    -0.019159350108984
  54       0.0983609319534
  55      0.36017447189798
  56    -0.052547583732043
  57    -0.020030346489604
  58    -0.024604067749552
 Sym= A
 Ene=              15
 Spin= Alpha
 Occup=    0.00000
   1     0.061149663767791
   2     0.070883880521435
   3      -1.1919926662418
   4     -0.12842011479068
   5      0.02254079240082
   6     -0.01631816011155
   7     -0.43714446196547
   8     -0.64517123085446
   9      0.56574498926247
  10     0.031537173339473
  11     0.062395166938353
  12    -0.023372180210562
  13    -0.018906581567938
  14     -0.09767582161755
  15     -0.40749255112637
  16     -0.71848346439858
  17       3.4057387659853
  18      0.16671890033167
  19     0.071813350825026
  20    -0.035082176278237
  21     -0.10001027151497
  22       2.2348267159646
  23      -1.5110359161167
  24     -0.13488692145065
  25     -0.15741848343899
  26     -0.29753607279814
  27      -0.1505829417541
  28      0.25157229613646
  29    -0.0050506986391843
  30      0.38805355174027
  31    -0.043801499502077