[Molden Format]
made by pyscf v[2.0.1]
[Atoms] (AU)
C   1   6     0.00000000000000     0.00000000000000     0.00000000000000
C   2   6     2.88195139270757     0.00000000000000     0.00000000000000
H   3   1     3.63065534584939     0.00000000000000     1.92469232395612
H   4   1     3.63065534584939    -1.66683244701491    -0.96234616197806
H   5   1     3.63065534584939     1.66683244701491    -0.96234616197806
H   6   1    -0.74870395314182     0.65828354449729    -1.80861917410484
H   7   1    -0.74870395314182     1.23716837829778     1.47439985948033
H   8   1    -0.74870395314182    -1.89545192279507     0.33421931462451
[GTO]
1 0
 s    8 1.00
                  6665  0.00069158396281299
                  1000  0.0053257961529341
                   228   0.027060721042034
                 64.71    0.10165684614077
                 21.06     0.2745748236174
                 7.495    0.44829431892377
                 2.797    0.28490261071525
                0.5215   0.015194859206082
 s    8 1.00
                  6665  -0.00029326965268655
                  1000  -0.0023180354739745
                   228  -0.011499786038565
                 64.71  -0.046826727009787
                 21.06   -0.12846616875047
                 7.495   -0.30126627246289
                 2.797   -0.25563070233011
                0.5215      1.093793361012
 s    1 1.00
                0.1596                   1
 p    3 1.00
                 9.439   0.056979251590039
                 2.002    0.31320721150073
                0.5456    0.76037674173753
 p    1 1.00
                0.1517                   1
 d    1 1.00
                  0.55                   1

2 0
 s    8 1.00
                  6665  0.00069158396281299
                  1000  0.0053257961529341
                   228   0.027060721042034
                 64.71    0.10165684614077
                 21.06     0.2745748236174
                 7.495    0.44829431892377
                 2.797    0.28490261071525
                0.5215   0.015194859206082
 s    8 1.00
                  6665  -0.00029326965268655
                  1000  -0.0023180354739745
                   228  -0.011499786038565
                 64.71  -0.046826727009787
                 21.06   -0.12846616875047
                 7.495   -0.30126627246289
                 2.797   -0.25563070233011
                0.5215      1.093793361012
 s    1 1.00
                0.1596                   1
 p    3 1.00
                 9.439   0.056979251590039
                 2.002    0.31320721150073
                0.5456    0.76037674173753
 p    1 1.00
                0.1517                   1
 d    1 1.00
                  0.55                   1

3 0
 s    3 1.00
                 13.01   0.033498726389998
                 1.962    0.23480080117413
                0.4446     0.8136829578829
 s    1 1.00
                 0.122                   1
 p    1 1.00
                 0.727                   1

4 0
 s    3 1.00
                 13.01   0.033498726389998
                 1.962    0.23480080117413
                0.4446     0.8136829578829
 s    1 1.00
                 0.122                   1
 p    1 1.00
                 0.727                   1

5 0
 s    3 1.00
                 13.01   0.033498726389998
                 1.962    0.23480080117413
                0.4446     0.8136829578829
 s    1 1.00
                 0.122                   1
 p    1 1.00
                 0.727                   1

6 0
 s    3 1.00
                 13.01   0.033498726389998
                 1.962    0.23480080117413
                0.4446     0.8136829578829
 s    1 1.00
                 0.122                   1
 p    1 1.00
                 0.727                   1

7 0
 s    3 1.00
                 13.01   0.033498726389998
                 1.962    0.23480080117413
                0.4446     0.8136829578829
 s    1 1.00
                 0.122                   1
 p    1 1.00
                 0.727                   1

8 0
 s    3 1.00
                 13.01   0.033498726389998
                 1.962    0.23480080117413
                0.4446     0.8136829578829
 s    1 1.00
                 0.122                   1
 p    1 1.00
                 0.727                   1

[5d]
[7f]
[9g]

[MO]
 Sym= A
 Ene=               0
 Spin= Alpha
 Occup=    1.00000
   1       1.0026253256093
   2    -0.00040843954503704
   3    -0.012719321906328
   4    0.00096899812480475
   5    8.1601348730723e-08
   6    9.0617652420673e-08
   7    -0.00015664378786472
   8    3.9267177017983e-08
   9    4.2144055923125e-08
  10    9.0168570613377e-05
  11    -3.787586472153e-09
  12    6.673641907295e-09
  13    -0.00015617377471359
  14    -5.5535812184316e-09
  15    -1.4685147826684e-05
  16    -0.00044491199828376
  17    0.0018750368363511
  18    0.0011419371504713
  19    -4.6272832708651e-08
  20    -2.3105346574894e-09
  21    -0.0005874672105451
  22    -2.2921038014781e-08
  23    -3.9347012388202e-09
  24    0.00025177506374915
  25    -4.4432915017047e-09
  26    3.5082299979655e-09
  27    -0.00043608809575402
  28    -5.8662456844345e-09
  29    3.0876076448662e-05
  30    0.00018719497250343
  31    -3.3998583425133e-05
  32    -4.9206639183255e-06
  33    -1.0988136004516e-05
  34    3.0928738672588e-05
  35    0.0001872333548341
  36    -3.4000289701709e-05
  37    1.1976224685617e-05
  38    1.2351536530054e-06
  39    3.0848432845717e-05
  40    0.00018718659696601
  41    -3.3997368727515e-05
  42    -7.0554896838335e-06
  43    9.752424020518e-06
  44    -0.0029106063513858
  45    0.00073858164294158
  46    -0.00021470736791524
  47    0.00027090721316638
  48    -0.0007458309365291
  49    -0.0029104489249097
  50    0.00073865204625839
  51    -0.00021470191047002
  52    0.00051045288871513
  53    0.00060751990788379
  54    -0.0029106165854256
  55    0.00073857290668543
  56    -0.00021470762553721
  57    -0.00078136114824498
  58    0.0001383095350623
 Sym= A
 Ene=               1
 Spin= Alpha
 Occup=    1.00000
   1    -1.4678971495744e-05
   2    -0.00044523838112226
   3    0.0018748168300067
   4    -0.0011421831861641
   5    -7.2700099986045e-09
   6    5.7723090921429e-08
   7    0.00058735481035824
   8    -7.943810746313e-10
   9    3.030636998434e-08
  10    0.00025178379740663
  11    -9.7869307205934e-09
  12    3.5994954002765e-09
  13    -0.00043610802444841
  14    -2.403643515909e-09
  15       1.0026253307379
  16    -0.00040853778901317
  17    -0.012719408784144
  18    -0.00096864055925822
  19    -5.7197653424693e-08
  20    -1.533881556633e-07
  21    0.00015680882952194
  22    -2.6233681436019e-08
  23    -7.3085762676298e-08
  24    9.0177566092686e-05
  25    -9.0107486432546e-09
  26    3.3980402714612e-09
  27    -0.00015620909585672
  28    -1.9660950969028e-09
  29    -0.002910628218166
  30    0.0007385779292465
  31    0.00021471694131946
  32    -5.2493688041291e-07
  33    0.00079350728596563
  34    -0.002910378988384
  35    0.00073869302346693
  36    0.00021470839717333
  37    -0.00068692417118762
  38    -0.00039720383572293
  39    -0.0029104648810687
  40    0.00073865609681332
  41    0.00021471146431199
  42    0.00068745009268017
  43    -0.00039630126508757
  44    3.0744703027131e-05
  45    0.00018718284376698
  46    3.3985629451119e-05
  47    -8.3748483589273e-06
  48    8.6290041085693e-06
  49    3.0848738157171e-05
  50    0.00018724969757486
  51    3.3989201607408e-05
  52    -3.2882104314866e-06
  53    -1.1569115540199e-05
  54    3.0816551321933e-05
  55     0.000187223070042
  56    3.3988416654817e-05
  57    1.166344598272e-05
  58    2.940351084262e-06
 Sym= A
 Ene=               2
 Spin= Alpha
 Occup=    1.00000
   1    -0.0050502633615521
   2      0.18324470089797
   3      0.10589348783036
   4     -0.12358957144811
   5      -0.3416284019894
   6      0.06121768391858
   7    -0.060852942441024
   8     -0.15988564755609
   9     0.028352728840032
  10    -0.011012476278244
  11    -0.0024914662365526
  12    -0.006605555142808
  13    -0.014865969057724
  14     0.013772429469043
  15    -0.0024628620521999
  16    -0.020042847381192
  17    -0.012757361235089
  18     0.024205226625563
  19    -0.00074358113368054
  20    0.00087693451386832
  21     0.013946950418327
  22    0.0085424872624536
  23    0.0016839327545913
  24    -0.0040259501037295
  25    -0.0031030482593584
  26    -0.0025111408986911
  27     0.003018759927906
  28      0.01646676783676
  29    -0.0047238249609657
  30    -0.0037911369181846
  31    0.0019314010041548
  32    0.00054160214427382
  33    -0.00039503222532498
  34    -0.018923123083355
  35    -0.021695748957883
  36    0.0016486613593093
  37    0.00090243879881345
  38    0.00012382642908068
  39     0.022684958333284
  40     0.040590774011875
  41    0.00043623663685954
  42    0.0010933401934459
  43    -0.00060349490569135
  44    -0.019821393159958
  45    -0.037313319304786
  46    -0.0025668765522962
  47    -0.011445583716992
  48    0.0041882423808498
  49    -0.019429104867001
  50    -0.036721518779152
  51    -0.0025860709839891
  52    -0.012334438318417
  53    -0.00012073806147816
  54       0.4330732430808
  55      0.16021355552998
  56     0.012806666724728
  57     0.029664585734192
  58    -0.0050972283529517
 Sym= A
 Ene=               3
 Spin= Alpha
 Occup=    1.00000
   1    -0.0024631156206895
   2    -0.020041766264685
   3     -0.01275650912065
   4    -0.024202701077677
   5    -0.00073465653482383
   6    0.00088457004675475
   7    -0.013945777990443
   8    -0.0031417594388261
   9    -0.0081203050789473
  10    3.9072366454885e-05
  11     0.016755427553696
  12    -0.0016834456596499
  13    0.0053659604683354
  14    -0.00019658118890453
  15    -0.0050502492866948
  16       0.1832462377648
  17       0.1058946019621
  18      0.12358726812941
  19    -0.00096669659564969
  20      0.34706842553899
  21     0.060851875372304
  22    -0.00015915952668606
  23      0.16237992836863
  24     0.019450683541889
  25     0.013995824472488
  26    -0.00040297187346135
  27    0.0027221722375858
  28    -6.2138758817275e-05
  29      0.43307306999207
  30      0.16021325418337
  31    -0.012806727242373
  32    -0.00013147936512499
  33    -0.030099056362826
  34    -0.019427360340944
  35    -0.036720989934334
  36    0.0025859451277674
  37    0.0022608407933614
  38     0.012126165194144
  39    -0.019822936985049
  40    -0.037314201879368
  41    0.0025668625149594
  42    -0.0021370859522919
  43     0.011998920736833
  44     0.022684653516066
  45     0.040590521252075
  46    -0.00043618201933094
  47    0.0004044724738285
  48    -0.001181536131471
  49    -0.018923378618693
  50    -0.021695878009615
  51    -0.0016486003461891
  52    -0.00027864271758351
  53    -0.00086721164577118
  54    -0.0047241196380853
  55    -0.003791569973335
  56    -0.0019313421825576
  57    0.00029498996256154
  58    -0.00060197098477144
 Sym= A
 Ene=               4
 Spin= Alpha
 Occup=    1.00000
   1    -0.0024632063138672
   2    -0.020041766044949
   3    -0.012756539328428
   4    -0.024203186261462
   5    -0.00039732760659647
   6    -0.0010809136141214
   7    -0.013946013347339
   8    0.0086039224613712
   9    0.0013381739680074
  10    -0.0022274662422966
  11    -0.0085478313128091
  12    0.0031944836154986
  13    0.0040573463277487
  14    -0.014412388701548
  15    -0.0050507977636305
  16      0.18324644953582
  17      0.10589470186231
  18      0.12358785770379
  19     -0.30008665616275
  20     -0.17437078640253
  21     0.060852159208004
  22     -0.14054558453759
  23    -0.081327467449005
  24    -0.0038971408561814
  25    -0.0070515845712888
  26     0.015968230277594
  27    -0.010757742512962
  28    -0.012089734177104
  29    -0.019821928710036
  30    -0.037313605277262
  31    0.0025668404255117
  32    -0.0093228265296647
  33    -0.0078502802035718
  34      0.43307304801715
  35       0.1602131939013
  36    -0.012806709042692
  37     0.026132292699177
  38     0.014935689734733
  39    -0.019427444554053
  40     -0.03672123507269
  41     0.002585959662919
  42    -0.011632002887283
  43    -0.0041051045984396
  44    -0.0047215404593395
  45    -0.0037903998895439
  46    -0.0019312674882836
  47    0.0003737965738656
  48    0.00055658171302262
  49     0.022683971508625
  50     0.040590187064922
  51    -0.00043621777413682
  52    0.0008210812892389
  53    0.00094101628882449
  54    -0.018924788573364
  55    -0.021696495943611
  56    -0.0016486624150571
  57    0.00089027790507728
  58    0.00019223832626948
 Sym= A
 Ene=               5
 Spin= Alpha
 Occup=    1.00000
   1    -0.0050502545965481
   2      0.18324480660041
   3      0.10589340057342
   4      -0.1235916506647
   5      0.11779742658144
   6     -0.32646710975058
   7    -0.060853901386879
   8     0.055388267911192
   9     -0.15264110500176
  10     0.015986518372135
  11     0.013172992841561
  12    -0.011393739298897
  13    0.00072165439707811
  14    -0.0047284336922214
  15    -0.0024626629324988
  16    -0.020045329063251
  17    -0.012758960940065
  18     0.024206040573034
  19    -0.00038601015056607
  20     -0.00108222586277
  21     0.013947312473924
  22    -0.0057287791993551
  23    0.0065561284559638
  24    0.00042589094989651
  25     0.015812142091499
  26    -0.00045682055292376
  27    0.0055889545353488
  28    -0.0055459649196437
  29     0.022684127068125
  30     0.040590745043921
  31    0.0004363038427289
  32    -2.3975618714659e-05
  33    0.0012487267016746
  34    -0.0047261307823422
  35    -0.0037917773760621
  36    0.0019315161370852
  37    7.1148807273035e-05
  38    0.00066644203207993
  39    -0.018922861035678
  40    -0.021695184739272
  41    0.0016486907178985
  42    -0.00055837440054399
  43    0.00071960938762631
  44      0.43307323132284
  45      0.16021348622156
  46     0.012806623134609
  47    -0.010417990406039
  48     0.028238922332837
  49    -0.019820757798367
  50    -0.037313187183152
  51    -0.0025669017587557
  52    0.0020955995380875
  53    -0.012006322353781
  54    -0.019427577408186
  55    -0.036720782437623
  56    -0.0025860652347414
  57    0.0062718760816678
  58    -0.010621570117516
 Sym= A
 Ene=               6
 Spin= Alpha
 Occup=    1.00000
   1    -0.0050506193269778
   2      0.18324494801179
   3      0.10589352280467
   4     -0.12359131192661
   5      0.22382939741588
   6      0.26524971890562
   7     -0.06085375743104
   8       0.1044965948121
   9      0.12428855079089
  10    0.0060781658200145
  11    -0.010681579162965
  12      0.01799925132667
  13    -0.0049988634868538
  14    -0.0090438266955063
  15    -0.0024628812459356
  16    -0.020044188884432
  17      -0.0127582580878
  18     0.024206189780044
  19    0.0011317585313808
  20    0.00020443237509886
  21      0.01394739908766
  22    -0.0028126535153852
  23    -0.0082404591744597
  24    -0.003340872344349
  25    -0.012709143210333
  26    0.0029678370974372
  27    0.0034142168710167
  28    -0.010920638911799
  29    -0.018924368712485
  30    -0.021696065070703
  31    0.0016487395704881
  32    -0.00034396433319592
  33    -0.00084334899256312
  34     0.022684620194742
  35     0.040590765936956
  36    0.00043628241604401
  37    -0.0010693342928901
  38    -0.00064516837818537
  39    -0.0047232712045005
  40    -0.0037906364242041
  41     0.001931416022893
  42    -0.00061290683361967
  43    -0.00027154915058048
  44    -0.019428505528416
  45    -0.036721401781701
  46    -0.0025860894434761
  47    0.0060626048707994
  48     0.010742361976178
  49      0.43307326347077
  50      0.16021353858601
  51     0.012806626748865
  52    -0.019246654722337
  53    -0.023141684290321
  54    -0.019819954994554
  55    -0.037312688146721
  56    -0.0025668656929474
  57    0.0093500106335722
  58    0.0078180156025224
 Sym= A
 Ene=               7
 Spin= Alpha
 Occup=    1.00000
   1    -0.0024629941465897
   2    -0.020043954118489
   3    -0.012757952814842
   4    -0.024203894688592
   5    0.0011336440669027
   6    0.00019455352989211
   7    -0.013946320461882
   8    -0.0054613823642459
   9     0.006781267210752
  10    -0.0047527115030295
  11    -0.008207476277065
  12    -0.0015110741281463
  13     0.002599307002282
  14     0.014608881720265
  15    -0.0050505710926325
  16      0.18324601744717
  17      0.10589431273719
  18      0.12358942452831
  19      0.30105292248643
  20     -0.17269665736565
  21     0.060852871520548
  22       0.1407044881697
  23    -0.081051970732201
  24    -0.0045015447462427
  25    -0.0069441127965878
  26     -0.01556523134926
  27    -0.011106903186733
  28     0.012151775981513
  29      -0.0194264952836
  30     -0.03672065095964
  31    0.0025859657287242
  32    0.0093711300563255
  33    -0.0080210939694087
  34      -0.0198220999556
  35     -0.03731378743634
  36    0.0025668840616775
  37     0.011459953760783
  38    -0.0041486467559196
  39      0.43307312170036
  40      0.16021328520433
  41    -0.012806677707187
  42    -0.026000825803882
  43     0.015163404827127
  44    -0.018924452936476
  45    -0.021695975487289
  46    -0.0016486822419701
  47    -0.00061164973695272
  48    0.00067480726208682
  49    -0.0047242587198809
  50    -0.0037912902556828
  51    -0.0019313909628341
  52    -0.0006687735532453
  53    4.5576968366213e-05
  54     0.022683796041933
  55     0.040590436231564
  56    -0.00043625628752096
  57    -0.0012255764785286
  58    0.00024052187537391
 Sym= A
 Ene=               8
 Spin= Alpha
 Occup=    1.00000
   1    0.0055247012985784
   2     -0.19659522970457
   3     -0.14784383826064
   4     -0.36748421962817
   5    -1.3081402827037e-06
   6    6.1105044332346e-07
   7     -0.17050318263277
   8    -5.892822641061e-07
   9    2.4937535971667e-07
  10      0.01597232145929
  11    2.3797025527821e-08
  12    -3.2032503963334e-09
  13    -0.027664993978328
  14    -9.899761953959e-09
  15    0.0055237364793889
  16     -0.19659077207925
  17     -0.14784122328482
  18       0.3674864008248
  19    -1.2852932472606e-06
  20    1.0209976443444e-06
  21       0.1705042105062
  22    -5.6350513779188e-07
  23    4.7434420433447e-07
  24     0.015972544266043
  25    1.0844946788184e-08
  26    5.8041329400625e-08
  27    -0.027665169402651
  28    1.0812499281887e-08
  29     0.022352241370772
  30     0.037480497872411
  31    0.0094525287910099
  32    1.2047317094296e-06
  33    0.0013640304452611
  34     0.022351862497781
  35     0.037480335210282
  36    0.0094525385281346
  37    -0.0011819444944761
  38    -0.00068090829967412
  39     0.022350091343909
  40     0.037479726368731
  41    0.0094526002469528
  42    0.0011807710051112
  43    -0.00068314595693099
  44     0.022347722980705
  45     0.037479423830229
  46    -0.0094526693486071
  47    0.00046781528870586
  48     -0.00128175867466
  49     0.022348190352232
  50     0.037479543467972
  51    -0.0094526501741037
  52    0.00087605343041188
  53    0.0010460403883459
  54     0.022349617107909
  55     0.037480035133363
  56    -0.0094526046175101
  57    -0.0013438352370908
  58    0.00023570161853832
 Sym= A
 Ene=               9
 Spin= Alpha
 Occup=    0.00000
   1     -0.16449518613492
   2     -0.21106712896207
   3       3.6231310391586
   4      0.32436897422456
   5    7.6341388299544e-05
   6    -0.00038825478506953
   7       1.7670215377708
   8    0.00026992966583793
   9    -0.00052220827290262
  10    -0.083712692076774
  11    0.00028798289172251
  12    -0.0019652348056118
  13      0.14877517106501
  14    3.7875979712851e-05
  15      0.27912807522277
  16      0.53524231129906
  17      -2.1042832590051
  18     -0.34653821947749
  19    0.00011448771078988
  20    4.1509805889822e-05
  21       3.6672260417415
  22    -4.8394403157534e-05
  23    -0.00036375445723921
  24      0.13332631369355
  25    -9.1683804180169e-05
  26    -0.00059782293200086
  27     -0.23073348283101
  28    0.00023804828108362
  29     -0.16875951713974
  30     -0.49713010653519
  31     -0.29943360911974
  32    -8.1987941664295e-05
  33      0.18434401609607
  34     -0.16861943694593
  35       -0.497540093413
  36     -0.29950238546461
  37      -0.1594080328765
  38    -0.092275696422822
  39     -0.16915729838551
  40     -0.49744232512335
  41     -0.29933318204012
  42      0.15994316037135
  43    -0.091891050299185
  44     -0.15416065675683
  45      0.12360039890825
  46    0.0083549214059446
  47    0.00044316537227161
  48    0.0030054989060843
  49      -0.1520794083534
  50      0.12379032423755
  51    0.0091476690122908
  52    -0.0030457728179722
  53    -0.0020704238022499
  54     -0.15237054356513
  55      0.12388073439144
  56    0.0090743572617454
  57    0.0029722589888063
  58    -0.0026605807295588
 Sym= A
 Ene=              10
 Spin= Alpha
 Occup=    0.00000
   1     0.058395097421961
   2     0.066590590134417
   3      -1.1604349883893
   4     -0.12840775555822
   5     0.022382458070857
   6    -0.015695102009783
   7     -0.44309035847169
   8     -0.51801304926427
   9      0.48532801985157
  10     0.051237907905825
  11     0.063097396422233
  12     0.004906265378246
  13    -0.014758089878873
  14    -0.096799168247914
  15     -0.40843828553808
  16     -0.72143648085553
  17       3.4020059509335
  18      0.16368435139415
  19     0.069701770993199
  20    -0.033126552506998
  21     -0.10063961922657
  22       2.1722418234222
  23      -1.5014970848181
  24     -0.14156313348783
  25      -0.1645063920027
  26     -0.29895682424977
  27     -0.15360302526628
  28       0.2556458126047
  29    0.0040530639652305
  30      0.37880042929254
  31     -0.04515800086115
  32     -0.24133945085345
  33    0.0028616832345375
  34     -0.10830800851047
  35      0.17843006122817
  36    -0.028203952484208
  37     -0.16097548760297
  38      0.21277575306404
  39      -1.6571510332315
  40      -1.8309991287759
  41      0.25506696316855
  42       0.4149651200203
  43     -0.21163263844391
  44     0.074425388434703
  45      0.22328500115062
  46    -0.060896085202599
  47     0.044799796606369
  48    -0.008575903376255
  49     0.042403665032026
  50    -0.055573974425159
  51    -0.027633270860822
  52     0.049766788046604
  53    -0.035472971725431
  54     0.077262411005706
  55    -0.033994512168559
  56     0.089914112744966
  57     0.042586390797565
  58    -0.035639766107846
 Sym= A
 Ene=              11
 Spin= Alpha
 Occup=    0.00000
   1      0.40845504676366
   2      0.72148526350165
   3      -3.4020092448937
   4      0.16366161750225
   5    -0.020331653618149
   6     0.074389852838089
   7      -0.1005662761266
   8      -1.1049125368815
   9       2.3985855941282
  10     -0.28206034083492
  11     -0.28017012066523
  12      0.21245522865793
  13    -0.090989271493361
  14      0.11793908479097
  15    -0.058414167776708
  16    -0.066634685734013
  17       1.1604670028505
  18     -0.12838315207907
  19     -0.01163781580805
  20     0.024764501422776
  21     -0.44309861091557
  22      0.38949411356778
  23     -0.59412260571467
  24     0.012308860775056
  25      0.10620939823173
  26    0.0080169159172799
  27     0.051441414651806
  28    -0.045422887506912
  29    -0.077230918127072
  30     0.033914482562891
  31     0.089857630357315
  32    -0.027861235578217
  33        0.048105500316
  34    -0.042248803578204
  35     0.056023154341705
  36    -0.027535932279356
  37    -0.026338921103693
  38     0.055214271238089
  39    -0.074638724573384
  40     -0.22366703839295
  41    -0.060938475717955
  42    -0.00069917676437973
  43     0.045520176375556
  44       1.6570206504316
  45       1.8308635415083
  46      0.25500923934604
  47     -0.13589774350695
  48      0.44550320578552
  49       0.1094556523461
  50     -0.17678319111197
  51    -0.028046673516645
  52      0.18159084695656
  53     -0.19581075984762
  54    -0.0050909368903841
  55     -0.38032993634345
  56    -0.045392778610267
  57    -0.039226761008753
  58     -0.23796483073471
 Sym= A
 Ene=              12
 Spin= Alpha
 Occup=    0.00000
   1      0.40842284596605
   2      0.72141559804231
   3      -3.4017395280769
   4      0.16359581779098
   5     0.074203311224455
   6    -0.019236476523873
   7     -0.10043545558759
   8       2.6288815576567
   9     -0.24164264787233
  10       0.2507019090114
  11     0.037905489583869
  12      0.14526912187109
  13      0.21531596816676
  14      -0.3015457443252
  15      -0.0583000397255
  16    -0.066396466164725
  17       1.1602568711097
  18     -0.12850026097586
  19     0.027530130834067
  20    -0.0020238982954785
  21      -0.4431698309703
  22     -0.70853627061961
  23    -0.040156856353536
  24     -0.02841123974904
  25    -0.013369436744845
  26    -0.037450936211223
  27     0.028412148858775
  28      0.11486548714026
  29    -0.042729300303173
  30     0.055975919275108
  31    -0.027453031852552
  32     0.061422266538055
  33    -0.0045138914059232
  34     -0.07347127717301
  35     -0.22346968359869
  36    -0.061323826737753
  37     0.040212570483598
  38    -0.021999815731075
  39    -0.077735578446319
  40     0.033789240152877
  41     0.090036014907198
  42     0.055914173540476
  43    0.00026974358893602
  44      0.11086013874342
  45     -0.17648429858648
  46    -0.027634781597534
  47     -0.26110233164009
  48     -0.05898774082321
  49    -0.0052584543953248
  50     -0.38040706249185
  51    -0.045643448643167
  52     -0.18722903177926
  53      0.15358298624694
  54       1.6551970892427
  55         1.83069488951
  56      0.25407792890763
  57      0.45318866271433
  58      -0.1045426648127
 Sym= A
 Ene=              13
 Spin= Alpha
 Occup=    0.00000
   1     -0.27916536090015
   2     -0.53533387452296
   3       2.1044405231517
   4     -0.34656257304628
   5    5.2283383604744e-05
   6    0.00012433522054963
   7       3.6672417419881
   8    -0.00039924528874121
   9    -0.00012475912972414
  10     -0.13334481501775
  11    -0.00026515743393409
  12    0.00061233177723041
  13      0.23073466980546
  14    8.6794875015808e-05
  15      0.16450959398532
  16      0.21110851844739
  17      -3.6232003565734
  18      0.32434502879391
  19    -0.0003550824690659
  20    0.00012945147240219
  21       1.7670528203033
  22    -0.0004944414857699
  23    0.00045063934947363
  24     0.086353848420078
  25    -2.3033300496994e-05
  26     0.002458859845981
  27      -0.1472515185889
  28    -0.00028174516942442
  29      0.15234454203398
  30     -0.12391471893732
  31    0.0090984737979502
  32    -0.0020939339969678
  33    0.0033702176851397
  34      0.15209675736156
  35     -0.12379054871405
  36    0.0091422531781378
  37    -0.0025655074079403
  38    -0.0026375074004715
  39      0.15416143086558
  40     -0.12357164708185
  41    0.0083538110996544
  42    0.0030543149661082
  43    -8.0737744587818e-05
  44      0.16913653322788
  45      0.49737859853473
  46     -0.29933229838657
  47    -0.062708155902721
  48      0.17348807347597
  49      0.16864393438811
  50      0.49759633300141
  51     -0.29949654985058
  52      -0.1185640828746
  53     -0.14096579266674
  54      0.16874723516663
  55      0.49709125161506
  56     -0.29942086652788
  57      0.18149781102872
  58    -0.032061757829206
 Sym= A
 Ene=              14
 Spin= Alpha
 Occup=    0.00000
   1     0.058340619470953
   2     0.066458717997421
   3      -1.1610382300637
   4     -0.12861351521635
   5    -0.024942353033487
   6    -0.011218255348088
   7     -0.44333539293304
   8      0.67877781799514
   9      0.20658700807429
  10    0.0051885102571185
  11     0.052024493269718
  12    -0.033362119584949
  13    -0.041356132762021
  14      0.10318569237956
  15     -0.40851623087263
  16     -0.72157498124598
  17       3.4023174399393
  18      0.16379509320372
  19    -0.062985487999634
  20    -0.044010875940821
  21     -0.10108037775033
  22       -2.385326067992
  23      -1.1306475505202
  24     -0.10809602601358
  25     -0.13928960433659
  26      0.31786573689705
  27     -0.13316677477045
  28     -0.27001372222892
  29     -0.10768988794942
  30      0.17844056276397
  31    -0.028457660157072
  32      0.26571500580635
  33     0.032729955204535
  34      -1.6555370472906
  35      -1.8307271401168
  36      0.25430232697883
  37     -0.38986172794872
  38     -0.25388288538171
  39     0.002209597169043
  40      0.37860379431794
  41    -0.044649457952638
  42      0.12404135123084
  43      0.20746336228895
  44     0.043605174544473
  45     -0.05533712369754
  46    -0.027235794420659
  47    -0.055843776075982
  48    -0.024939693721615
  49     0.076930586653469
  50    -0.034068401741094
  51     0.089799273000516
  52    -0.052397361694678
  53    -0.018653375999301
  54     0.073708002577153
  55      0.22313321710924
  56    -0.061101243217074
  57     -0.03005545208203
  58    -0.034091754342976
 Sym= A
 Ene=              15
 Spin= Alpha
 Occup=    0.00000
   1     0.058297817050064
   2     0.066384149903425
   3      -1.1603064472741
   4     -0.12852066794483
   5     0.002720919294534
   6     0.027464689106635
   7     -0.44322545195174
   8     -0.16109940925177
   9     -0.69064307249146
  10    -0.00014386400698916
  11     -0.11550092013712
  12     0.031698947961092
  13    -0.044904672130146
  14    -0.0066330493405167
  15     -0.40840633508802
  16     -0.72136293007133
  17       3.4017840674444
  18      0.16360700326393
  19    -0.0058881947954705
  20     0.076459542868366
  21     -0.10050003625332
  22      0.21478294304031
  23       2.6310699009458
  24      0.33789693226649
  25       0.3035636460554
  26    -0.025090732752313
  27      0.12452994968942
  28     0.014667089669175
  29      -1.6553004998419
  30      -1.8308330390203
  31       0.2541080230383