[Molden Format]
made by pyscf v[2.0.1]
[Atoms] (AU)
C   1   6     0.00000000000000     0.00000000000000     0.00000000000000
C   2   6     2.88195139270757     0.00000000000000     0.00000000000000
H   3   1     3.63065534584939     0.00000000000000     1.92469232395612
H   4   1     3.63065534584939    -1.66683244701491    -0.96234616197806
H   5   1     3.63065534584939     1.66683244701491    -0.96234616197806
H   6   1    -0.74870395314182    -1.47439985948033    -1.23716837829778
H   7   1    -0.74870395314182     1.80861917410484    -0.65828354449729
H   8   1    -0.74870395314182    -0.33421931462451     1.89545192279507
[GTO]
1 0
 s    8 1.00
                  6665  0.00069158396281299
                  1000  0.0053257961529341
                   228   0.027060721042034
                 64.71    0.10165684614077
                 21.06     0.2745748236174
                 7.495    0.44829431892377
                 2.797    0.28490261071525
                0.5215   0.015194859206082
 s    8 1.00
                  6665  -0.00029326965268655
                  1000  -0.0023180354739745
                   228  -0.011499786038565
                 64.71  -0.046826727009787
                 21.06   -0.12846616875047
                 7.495   -0.30126627246289
                 2.797   -0.25563070233011
                0.5215      1.093793361012
 s    1 1.00
                0.1596                   1
 p    3 1.00
                 9.439   0.056979251590039
                 2.002    0.31320721150073
                0.5456    0.76037674173753
 p    1 1.00
                0.1517                   1
 d    1 1.00
                  0.55                   1

2 0
 s    8 1.00
                  6665  0.00069158396281299
                  1000  0.0053257961529341
                   228   0.027060721042034
                 64.71    0.10165684614077
                 21.06     0.2745748236174
                 7.495    0.44829431892377
                 2.797    0.28490261071525
                0.5215   0.015194859206082
 s    8 1.00
                  6665  -0.00029326965268655
                  1000  -0.0023180354739745
                   228  -0.011499786038565
                 64.71  -0.046826727009787
                 21.06   -0.12846616875047
                 7.495   -0.30126627246289
                 2.797   -0.25563070233011
                0.5215      1.093793361012
 s    1 1.00
                0.1596                   1
 p    3 1.00
                 9.439   0.056979251590039
                 2.002    0.31320721150073
                0.5456    0.76037674173753
 p    1 1.00
                0.1517                   1
 d    1 1.00
                  0.55                   1

3 0
 s    3 1.00
                 13.01   0.033498726389998
                 1.962    0.23480080117413
                0.4446     0.8136829578829
 s    1 1.00
                 0.122                   1
 p    1 1.00
                 0.727                   1

4 0
 s    3 1.00
                 13.01   0.033498726389998
                 1.962    0.23480080117413
                0.4446     0.8136829578829
 s    1 1.00
                 0.122                   1
 p    1 1.00
                 0.727                   1

5 0
 s    3 1.00
                 13.01   0.033498726389998
                 1.962    0.23480080117413
                0.4446     0.8136829578829
 s    1 1.00
                 0.122                   1
 p    1 1.00
                 0.727                   1

6 0
 s    3 1.00
                 13.01   0.033498726389998
                 1.962    0.23480080117413
                0.4446     0.8136829578829
 s    1 1.00
                 0.122                   1
 p    1 1.00
                 0.727                   1

7 0
 s    3 1.00
                 13.01   0.033498726389998
                 1.962    0.23480080117413
                0.4446     0.8136829578829
 s    1 1.00
                 0.122                   1
 p    1 1.00
                 0.727                   1

8 0
 s    3 1.00
                 13.01   0.033498726389998
                 1.962    0.23480080117413
                0.4446     0.8136829578829
 s    1 1.00
                 0.122                   1
 p    1 1.00
                 0.727                   1

[5d]
[7f]
[9g]

[MO]
 Sym= A
 Ene=               0
 Spin= Alpha
 Occup=    1.00000
   1       1.0026329789688
   2    -0.00039396591750399
   3    -0.012766690420099
   4    0.00097319437559206
   5    -2.2649115112647e-07
   6    7.9363927613756e-08
   7    -0.00016740661644779
   8    -1.1096938149321e-07
   9    3.8426487368807e-08
  10    8.9250018492901e-05
  11    -4.5218857453885e-09
  12    7.7052887607546e-09
  13    -0.00015456634264463
  14    1.320113050836e-08
  15    -2.7329946130195e-05
  16    -0.00046781287827175
  17    0.0019849716064449
  18    0.0011468657096302
  19    8.9744093673877e-08
  20    -2.9167061552047e-08
  21    -0.00058023712511042
  22    5.1071133025726e-08
  23    -1.8022020404635e-08
  24    0.00025948032350063
  25    -4.8560218512371e-09
  26    -5.0599067371503e-09
  27    -0.00044943495213064
  28    1.4303019586826e-08
  29    1.4337833360221e-05
  30    0.00016581397438251
  31    -2.5287730930054e-05
  32    2.8470069811416e-06
  33    -1.0514707275291e-05
  34    1.4302350386095e-05
  35    0.00016579195542495
  36    -2.5286398478584e-05
  37    7.6841451204088e-06
  38    7.7178093282668e-06
  39    1.4464695339407e-05
  40    0.00016588848806527
  41    -2.5291052691769e-05
  42    -1.0531540588884e-05
  43    2.7971618617905e-06
  44    -0.0029097426749016
  45    0.00074333350612133
  46    -0.0002152002255865
  47    -0.00060607234027146
  48    -0.00050887543163654
  49    -0.0029100671488158
  50    0.00074318349501636
  51    -0.00021521074696912
  52    0.00074375171857998
  53    -0.0002704355406175
  54    -0.0029097468221859
  55    0.00074333180178785
  56    -0.00021520021301364
  57    -0.00013767580369718
  58    0.00077930976390506
 Sym= A
 Ene=               1
 Spin= Alpha
 Occup=    1.00000
   1    -2.7334189414556e-05
   2    -0.00046755374644979
   3    0.0019851467148017
   4    -0.0011466735371795
   5    1.7139865682396e-09
   6    8.2860063304169e-08
   7    0.00058032518713883
   8    -5.1245719530453e-09
   9    4.4229268049714e-08
  10    0.00025947572647682
  11    -1.0084331182372e-08
  12    -2.672890404917e-09
  13    -0.00044941731278029
  14    6.2436787284497e-09
  15       1.0026329745037
  16    -0.00039387157312424
  17    -0.012766612848644
  18    -0.00097346706295049
  19    1.3385821356448e-07
  20    -1.4282821997922e-07
  21    0.00016728167614048
  22    6.3026630759916e-08
  23    -7.0872505328573e-08
  24    8.9221673910341e-05
  25    -9.5844129792681e-09
  26    -7.1212382009813e-09
  27    -0.00015455098945643
  28    5.2170980594024e-09
  29    -0.0029100229635292
  30    0.00074319176998352
  31    0.00021520229459532
  32    2.560382742813e-07
  33    0.00079139021170752
  34    -0.0029099292685406
  35    0.00074324049807356
  36    0.00021519949823825
  37    -0.0006854835483133
  38    -0.00039548021528971
  39    -0.0029097277223043
  40    0.00074332825241607
  41    0.00021519258714472
  42    0.00068522517852184
  43    -0.00039590789322622
  44    1.4386844881955e-05
  45    0.00016580117586245
  46    2.5295252610475e-05
  47    9.8886441939203e-06
  48    4.5876403690645e-06
  49    1.4398680536023e-05
  50    0.00016579534832644
  51    2.5296307558882e-05
  52    -8.9172636310511e-06
  53    6.2749000565182e-06
  54    1.4515854567489e-05
  55    0.00016586835971056
  56    2.5299470913264e-05
  57    -9.7199708070979e-07
  58    -1.0863192940158e-05
 Sym= A
 Ene=               2
 Spin= Alpha
 Occup=    1.00000
   1    -0.0051540314481342
   2      0.18289541237866
   3      0.10673987653473
   4     -0.12363688183838
   5      0.32671950450013
   6      -0.1183020593699
   7    -0.060307022249505
   8      0.15477743280609
   9    -0.056242034438971
  10    -0.0080841025450136
  11    0.0046651470628688
  12     -0.01116546688205
  13    -0.013348043939936
  14     -0.01292742642355
  15    -0.0024161246475476
  16    -0.020186351382197
  17    -0.013507707574535
  18     0.024404945303058
  19    -0.00018407707342502
  20    0.00051718908519668
  21     0.014860938758121
  22     -0.01237152189925
  23    0.0065184023501924
  24    -0.0029228081485129
  25    0.0055311932645182
  26    0.00070970413943487
  27    0.0037124195811937
  28    -0.015530879774543
  29    0.0080880090751735
  30     0.014703464561134
  31    0.0014602098001438
  32    -0.00029315525437779
  33    0.00027213382163001
  34     0.015574934554932
  35     0.027254172439178
  36    0.0010010316380492
  37    -0.00069336079408473
  38    -0.00025473373213866
  39    -0.024103077356357
  40    -0.027634326898701
  41     0.001168509117033
  42    -0.0007487572247448
  43    0.00035156187894878
  44    -0.019779921030677
  45    -0.036776201524474
  46    -0.0025691100908518
  47     0.011986586227538
  48    -0.0021681425189307
  49      0.43302243109092
  50      0.15991424630582
  51     0.012665634666416
  52     -0.02839363691187
  53     0.010416521191271
  54     -0.01952721269126
  55    -0.036419048824091
  56    -0.0025791451098838
  57     0.010622973306824
  58    -0.0061388063708778
 Sym= A
 Ene=               3
 Spin= Alpha
 Occup=    1.00000
   1    -0.0024158919327839
   2    -0.020187226132064
   3    -0.013508468370475
   4    -0.024408144295699
   5    0.00042231507293759
   6    -0.00035042100831107
   7    -0.014862437756022
   8    0.0018937485005833
   9    -0.013855094844233
  10    -0.0022853637428124
  11      0.01648604656972
  12    0.00097760332178309
  13    0.0040801466069324
  14    0.00011414998854838
  15    -0.0051541277060233
  16      0.18289406974367
  17      0.10673884364481
  18      0.12363985292908
  19    0.00057432045416748
  20      0.34747740648598
  21     0.060308416298569
  22    8.5498952320295e-05
  23      0.16467904789157
  24      0.01904666622088
  25     0.013743400900406
  26    0.00023705594776456
  27    0.0023156433443284
  28    3.7561185582826e-05
  29      0.43302261552658
  30      0.15991455978463
  31    -0.012665557127685
  32    7.7046603233282e-05
  33     -0.03024394788011
  34    -0.019777514492584
  35    -0.036775023188513
  36    0.0025691097207889
  37    0.0020623470387686
  38     0.012005345942589
  39    -0.019528870193869
  40    -0.036419556792514
  41    0.0025792852462283
  42    -0.0021352628973409
  43     0.012081837671517
  44     0.015576187900705
  45     0.027254695480831
  46    -0.0010010675465331
  47    -0.00047644842266067
  48    -0.00056436691137279
  49     0.008088370507973
  50     0.014703908679119
  51    -0.0014602873096877
  52    0.00015543655018198
  53    -0.00036856891116711
  54    -0.024102853540694
  55    -0.027634142847302
  56    -0.0011685875644806
  57    7.4251315006162e-05
  58    -0.00082387119423941
 Sym= A
 Ene=               4
 Spin= Alpha
 Occup=    1.00000
   1    -0.002415792385105
   2    -0.020188971300498
   3    -0.013509591587194
   4       -0.024408607418
   5    9.2485370356463e-05
   6    0.00053901461672877
   7    -0.014862654975589
   8     0.011052049343636
   9    0.0085666306186765
  10    -0.003097728573394
  11    -0.0081440509850777
  12    -0.00043602400192528
  13    0.0036111009568062
  14    -0.014334387950253
  15    -0.0051543133280008
  16      0.18289460958662
  17      0.10673907716907
  18      0.12364143312455
  19     -0.30121081353075
  20     -0.17324049588456
  21     0.060309144677532
  22      -0.1426586978661
  23    -0.082265008553631
  24    -0.0040625609335133
  25    -0.0068390472199287
  26     0.015169149614108
  27    -0.011026660301876
  28    -0.011920899413372
  29    -0.019527240398487
  30    -0.036418825269862
  31    0.0025792676823613
  32    -0.0093955280865719
  33    -0.0078902203955985
  34       0.4330225171456
  35       0.1599143702411
  36    -0.012665524417831
  37     0.026153531524223
  38     0.015188730997744
  39    -0.019776724142576
  40    -0.036774859123942
  41    0.0025691144316853
  42    -0.011428167458824
  43    -0.0042165562137432
  44    -0.024102522228584
  45    -0.027633663715086
  46    -0.001168603257614
  47    0.00067636184156549
  48    0.0004761697540557
  49     0.015576171991853
  50     0.027254936729673
  51    -0.0010010929724562
  52    0.00072701539450576
  53    -0.00013050490059693
  54    0.0080859396957643
  55     0.014703080201346
  56    -0.001460391655533
  57    0.0002414359882811
  58    0.00031906817743382
 Sym= A
 Ene=               5
 Spin= Alpha
 Occup=    1.00000
   1    -0.0051547321565323
   2      0.18289555703488
   3      0.10673980363097
   4     -0.12363953854425
   5    -0.060906190559275
   6      0.34209747225684
   7     -0.06030828339067
   8    -0.028681146626485
   9      0.16216181500333
  10     0.018054454903179
  11    -0.013528073299594
  12    -0.0062602367140264
  13    0.0017428366328546
  14    0.0024234365643425
  15    -0.002416333958861
  16    -0.020186951056465
  17    -0.013508228309861
  18      0.02440723727125
  19    -0.00035800948560054
  20    -0.00041923518809313
  21     0.014862033682321
  22    0.00053960745600202
  23    -0.013973792941627
  24    -0.0025781968841814
  25    -0.016215736584048
  26    -0.00093932147475184
  27    0.0039112101803201
  28    0.0029751545761594
  29    -0.024103614900978
  30     -0.02763441112621
  31    0.0011685933605495
  32    6.9848896185963e-05
  33    -0.00082420326405096
  34    0.0080906485879922
  35     0.014704729895425
  36    0.0014601838959164
  37    -8.8977206318799e-05
  38    -0.00038987591305697
  39      0.01557422481126
  40     0.027253866588058
  41    0.0010011157438259
  42    0.00056726695585844
  43    -0.00047316657637148
  44    -0.019526550160404
  45    -0.036418949619292
  46    -0.0025791823513378
  47    4.9732804442947e-06
  48     0.012269193823671
  49    -0.019777785841343
  50    -0.036775193714437
  51    -0.0025691061548964
  52    -0.0041157633133403
  53     0.011464791916059
  54      0.43302247452485
  55      0.15991427907055
  56     0.012665566731368
  57    0.0051758800598517
  58    -0.029797908228855
 Sym= A
 Ene=               6
 Spin= Alpha
 Occup=    1.00000
   1    -0.0024161368498304
   2    -0.020187275298718
   3    -0.013508501127834
   4    -0.024408250638003
   5    -0.00051531265016098
   6    -0.00019009488534809
   7    -0.014862505045867
   8    -0.012946040172888
   9     0.005287682418277
  10    -0.0016312412482462
  11    -0.0083418524154612
  12    -0.00054151287603229
  13    0.0044578322577251
  14      0.01422026772074
  15    -0.0051547880008263
  16      0.18289495691683
  17      0.10673937125066
  18      0.12364041766164
  19      0.30063668604914
  20      -0.1742351414535
  21     0.060308692830881
  22      0.14257331707519
  23    -0.082413144277065
  24    -0.0037070376027018
  25    -0.0069042124884534
  26    -0.015406210757508
  27     -0.01082125091151
  28     0.011883369863036
  29    -0.019776102292052
  30     -0.03677457206745
  31    0.0025690690804252
  32    0.0093657488692059
  33    -0.0077888329827521
  34     -0.01952836418741
  35    -0.036419501866149
  36    0.0025792762680091
  37     0.011530854814425
  38    -0.0041916646554257
  39      0.43302257839694
  40      0.15991445965895
  41    -0.012665545570955
  42     -0.02623057216398
  43     0.015055284119821
  44    0.0080886240772024
  45     0.014704057278687
  46    -0.0014602839268334
  47    -0.00039691402393869
  48    4.9698232353643e-05
  49    -0.024103469066793
  50    -0.027634351322974
  51    -0.0011686157321452
  52    -0.00075058650105804
  53    0.00034762492424499
  54     0.015576610039043
  55     0.027254828172482
  56    -0.0010010563868655
  57    -0.00025054517491832
  58    0.00069476856426825
 Sym= A
 Ene=               7
 Spin= Alpha
 Occup=    1.00000
   1    -0.0051547120597298
   2      0.18289511319794
   3      0.10673944009292
   4     -0.12364078402372
   5     -0.26581103034776
   6      -0.2237959958031
   7    -0.060308844788655
   8      -0.1260951377175
   9     -0.10592001032759
  10     0.001306374274522
  11    0.0088629030709579
  12     0.017425616847156
  13    -0.0079268368288523
  14     0.010503813304303
  15    -0.0024160275355811
  16    -0.020188617004606
  17    -0.013509319459215
  18     0.024407885009662
  19    0.00054027262078897
  20    -9.8934890690589e-05
  21      0.01486232179037
  22     0.011830968273808
  23    0.0074549590600553
  24    -0.0015135419752236
  25     0.010684531700852
  26    0.00022971300365154
  27    0.0045258092180122
  28     0.012555545011341
  29      0.01557496938885
  30     0.027254497182121
  31    0.0010011202882273
  32    0.00012608386753886
  33    0.0007278746635974
  34     -0.02410349458668
  35    -0.027634081924281
  36    0.0011686156755655
  37    0.00067877653614995
  38    0.00047262628763053
  39    0.0080879393617626
  40     0.014703715462848
  41    0.0014602988693076
  42    0.00038229433885463
  43    0.00011780171157835
  44      0.43302250809902
  45       0.1599143252981
  46     0.012665539852453
  47     0.023217834964751
  48     0.019381364843361
  49    -0.019525143609615
  50    -0.036418148584393
  51    -0.0025791715745491
  52    -0.010627977715702
  53    -0.0061302882804655
  54    -0.019778695941322
  55    -0.036775660407797
  56    -0.0025691646088018
  57    -0.0078709004688924
  58    -0.0092967121901873
 Sym= A
 Ene=               8
 Spin= Alpha
 Occup=    1.00000
   1    -0.0054895950704512
   2      0.19704197206385
   3      0.14775351113462
   4      0.36708679199788
   5    -2.5307612009528e-06
   6    -1.9861030638581e-07
   7      0.17038816098409
   8    -1.16681569088e-06
   9    -6.9329430442949e-08
  10    -0.016070047369613
  11    -1.4685945136198e-08
  12    1.1439447682579e-07
  13     0.027834247827872
  14    5.7729678906647e-08
  15    -0.0054903494750944
  16      0.19704440148169
  17      0.14775496027598
  18     -0.36708560335846
  19    -8.8770107925764e-07
  20    -4.8626296740963e-07
  21     -0.17038761784978
  22    -3.1976473329181e-07
  23    -2.3554794018757e-07
  24    -0.016070037748461
  25    -8.9501204582874e-09
  26    4.2185659995015e-08
  27     0.027834084653327
  28    8.4796026096073e-08
  29    -0.022137079313495
  30    -0.037327628520706
  31    -0.0094913383650695
  32    2.771975212884e-07
  33    -0.0014193704110894
  34    -0.022135954070785
  35    -0.037327317477191
  36    -0.0094913793353279
  37    0.0012291212228426
  38    0.00070998417446796
  39    -0.022136985692735
  40    -0.037327481835683
  41    -0.0094913340972271
  42    -0.001229370002924
  43    0.00070939762667539
  44    -0.022136522232512
  45    -0.037327078688868
  46    0.0094913664721464
  47    0.0010874118945295
  48    0.00091211111140527
  49    -0.022140207000272
  50    -0.037328567882486
  51    0.0094912389628324
  52    -0.0013334318702714
  53    0.00048561674804434
  54    -0.022138011447121
  55    -0.037327646086325
  56    0.0094913124900431
  57    0.00024606967295349
  58    -0.0013977225972264
 Sym= A
 Ene=               9
 Spin= Alpha
 Occup=    0.00000
   1     -0.16398330421892
   2     -0.21022360232237
   3       3.6236185679343
   4      0.32300383329284
   5    -6.9572622225162e-05
   6    0.00029438917960107
   7       1.7663738444656
   8    -5.2569737708752e-05
   9    0.00083637535260337
  10    -0.083415005700727
  11    -0.00036971878401938
  12    -0.00059459990381306
  13      0.14856833683316
  14    0.00019495038429937
  15      0.27529378725685
  16      0.52717206712659
  17      -2.0823289240062
  18       -0.348566913414
  19    -9.259595213595e-05
  20    -6.8442002279002e-05
  21       3.6700425936051
  22    -9.5842475128895e-05
  23    -0.0006748604825817
  24      0.13408379627399
  25    -0.00035647354645095
  26    0.0011659311563896
  27     -0.23256550677273
  28    0.00027297072039303
  29     -0.16688911202845
  30      -0.5049489657628
  31     -0.29764504057632
  32    -0.00025557944523255
  33      0.18349681424575
  34     -0.16772688599115
  35     -0.50535568588097
  36     -0.29746003464333
  37     -0.15934446649239
  38    -0.091633319441898
  39     -0.16711834987575
  40     -0.50540027631772
  41     -0.29789077988976
  42      0.15892496441052
  43    -0.091963975255807
  44     -0.15227059996695
  45      0.12401435890376
  46    0.0093837126055584
  47    -4.7576803949238e-05
  48    0.0016493953053281
  49     -0.15212593215172
  50      0.12395821825548
  51    0.0094250216133843
  52    -0.0012325161633421
  53    -0.00011810057094602
  54     -0.15391031767569
  55      0.12359433243917
  56    0.0088855085805976
  57    0.00090553174391506
  58    -0.00020740743056148
 Sym= A
 Ene=              10
 Spin= Alpha
 Occup=    0.00000
   1     0.062256228073352
   2     0.072664741912664
   3      -1.2035945163323
   4     -0.12832745499969
   5    -0.001569723479388
   6     0.028050451256492
   7     -0.43483748160951
   8     0.097611763375025
   9      -0.9063906961038
  10     0.032805855353056
  11     -0.11581946505616
  12    -0.015296917216502
  13    -0.015899061774184
  14    0.0025926991966691
  15     -0.40691158867352
  16     -0.71682903905618
  17       3.4069632652581
  18       0.1678098541085
  19    0.0030461497629936
  20     0.081286379198463
  21    -0.099513807989407
  22     -0.10379776507895
  23       2.7191211512166
  24      0.33787654544516
  25        0.293976285199
  26    0.0083501163584081
  27      0.12155751438216
  28    -0.0049982186187645
  29      -1.6724045785219
  30      -1.8893319146381
  31      0.25611927452222
  32     0.012176767992109
  33      0.46905777131331
  34    -0.074842405834555
  35       0.2565123319906
  36    -0.034131444066851
  37      0.11037416866619
  38     -0.24159391091614
  39    -0.026543357983144
  40      0.35583940333387
  41    -0.040701780574044
  42     -0.11594026012901
  43     -0.22492873217176
  44     0.062060691967724
  45      -0.1001267722008
  46     0.049023315253766
  47    -0.011383571538093
  48     0.061414720601021
  49     0.047710489457717
  50     -0.13592160530848
  51     0.015809885117063
  52    0.0060341596184914
  53     0.063243015903267
  54      0.10779259781254
  55        0.405559025624
  56    -0.047492429989042
  57     0.006400815217432
  58     0.024392659979218
 Sym= A
 Ene=              11
 Spin= Alpha
 Occup=    0.00000
   1     -0.40692147027456
   2     -0.71687731183308
   3       3.4067671915969
   4     -0.16790733061625
   5    -0.016655500629323
   6     0.080049599949614
   7     0.099590862043154
   8     -0.37150019567734
   9       2.6964914522894
  10      0.31977552658161
  11     -0.29039768444575
  12     -0.13286476522656
  13      0.10982878163421
  14     0.046153384129718
  15     0.062259481248958
  16     0.072651728148955
  17      -1.2033970537468
  18      0.12817055718857
  19    -0.003458525148332
  20     0.028057837808833
  21      0.43455279759171
  22      0.06157064820087
  23     -0.90941240186049
  24     0.036880645564714
  25      0.11484228064231
  26     0.008146959443361
  27    -0.013046349001628
  28    -0.017722208730741
  29      0.10732957802846
  30      0.40549441708756
  31     0.047658016723786
  32    -0.010742856452608
  33     0.023129948878082
  34      0.04775228942804
  35     -0.13576551049299
  36    -0.015811101277627
  37    -0.017066067984341
  38     0.061463048784578
  39     0.062713432112008
  40      -0.1002005302059
  41    -0.049264758943604
  42    0.00030953061577249
  43     0.062659694097272
  44    -0.025238419648919
  45      0.35517417491419
  46     0.041206256526772
  47      0.15357519398621
  48     -0.20070055432511
  49    -0.074722989745493
  50      0.25749194250613
  51     0.033866817358343
  52    -0.066244794529814
  53     -0.25586131432427
  54       -1.674240655972
  55      -1.8894826248005
  56     -0.25713828891149
  57    -0.092541490564518
  58      0.46064160670816
 Sym= A
 Ene=              12
 Spin= Alpha
 Occup=    0.00000
   1     -0.40686381380015
   2      -0.7167355531517
   3       3.4066148364753
   4     -0.16782147683332
   5     0.077432527846263
   6    -0.025035695697207
   7     0.099250488884733
   8       2.5205163640978
   9      -1.0253130830637
  10     -0.20712674044277
  11      0.10500540502744
  12     -0.22097389933167
  13     -0.19312442977143
  14     -0.27467845513585
  15     0.062222996951214
  16     0.072609263143741
  17       -1.203192442615
  18      0.12829761598655
  19     0.025819006551566
  20    -0.011033302007367
  21      0.43465094122245
  22     -0.81858434343284
  23      0.40091993656815
  24     0.010038905661576
  25    -0.041950266358252
  26     -0.02488270766493
  27    -0.029023683949229
  28      0.10798254288159
  29     0.047746333306999
  30     -0.13562973871292
  31    -0.015757198922841
  32     0.061504906674731
  33    -0.015935901152664
  34     0.062008497613935
  35     -0.10034985120941
  36    -0.049056804564983
  37     0.053811050723235
  38    -0.031644777086944
  39      0.10774836880772
  40      0.40549047290705
  41     0.047490641483775
  42      0.02513890938361
  43    -0.002270010351596
  44    -0.074051715088006
  45      0.25755416765372
  46     0.034275864563639
  47     -0.18905940847231
  48      0.18636098025127
  49      -1.6724794953577
  50      -1.8893803254527
  51     -0.25611413019953
  52       0.4448800583362
  53      -0.1492685045119
  54    -0.027252824923556
  55      0.35479824115368
  56     0.040604889475098
  57     -0.25119036324879
  58    -0.031877426256431
 Sym= A
 Ene=              13
 Spin= Alpha
 Occup=    0.00000
   1     -0.27531980263975
   2     -0.52722193053182
   3       2.0824773090644
   4     -0.34862815975468
   5    0.00010331600996635
   6    6.9176376963362e-05
   7       3.6699890766727
   8    0.00074590481897427
   9    -0.00023833873778031
  10     -0.13368993585052
  11    0.0003766385598156
  12    -0.0010074146206092
  13      0.23279633057082
  14    -0.00028111899862556
  15      0.16395677324508
  16      0.21017091543426
  17      -3.6235110645851
  18      0.32300483672847
  19    -0.00025756142931294
  20    0.00016292178873357
  21       1.7663136664548
  22    -0.00075307860649068
  23    0.00039132477209969
  24     0.086227994314788
  25    0.00029658206018951
  26    0.0017583912990693
  27     -0.14693769010353
  28    -0.000285936142416
  29      0.15210901695557
  30     -0.12398782713656
  31    0.0094377951246819
  32    0.0005325121745644
  33     0.001115177951145
  34      0.15227758703303
  35     -0.12399480128758
  36     0.009384825190343
  37    -0.0015316038617119
  38    0.00061123233695603
  39      0.15390518663935
  40     -0.12359866439321
  41    0.0088975258239999
  42    -0.00011509616415928
  43    -0.00091875183220968
  44      0.16769439248657
  45      0.50532319727837
  46     -0.29746113337308
  47      0.14059112179633
  48      0.11840162341296
  49      0.16679351839697
  50      0.50484653810325
  51     -0.29765245297932
  52     -0.17230309913947
  53     0.062995663489007
  54      0.16710286281699
  55      0.50541875020123
  56     -0.29788599351962
  57     0.032048779294165
  58     -0.18078225355318
 Sym= A
 Ene=              14
 Spin= Alpha
 Occup=    0.00000
   1     0.062282556465869
   2     0.072695114613111
   3      -1.2035750990178
   4     -0.12818039974409
   5     0.025215586082593
   6    -0.012814135589822
   7     -0.43463919296011
   8     -0.83401359091193
   9      0.36814051070187
  10    -0.0065031093380708
  11     0.055845355761575
  12     -0.01009785039639
  13    -0.038103006409587
  14     -0.10191101796723
  15     -0.40694201310464
  16     -0.71692095617213
  17        3.406905343431
  18      0.16787240827114
  19     0.069425813495589
  20    -0.043095252407948
  21    -0.099662732403524
  22       2.4079743206759
  23      -1.2693146057625
  24       -0.113657071786
  25     -0.14247248913032
  26     -0.31515579890871
  27     -0.14039399734717
  28      0.25719368744784
  29    -0.075443459218636
  30        0.256468291629
  31      -0.0337558598458
  32     -0.26322308499697
  33     0.025414995376718
  34    -0.024557214086001
  35      0.35619569635594
  36    -0.041309386777275
  37     -0.13587441673904
  38      0.21290479715539
  39      -1.6741671135802
  40      -1.8894772775238
  41      0.25712715029499
  42      0.40103407977979
  43      -0.2447435981211
  44     0.047687275979332
  45     -0.13609139926235
  46     0.015857266946498
  47      0.05192326966608
  48    -0.037031609893842
  49      0.10737187365628
  50      0.40557679395929
  51    -0.047655691257182
  52     0.018087851494322
  53    -0.017940172915759
  54     0.062769195913581
  55     -0.09995055770418
  56     0.049237023167458
  57     0.059034923861414
  58    -0.021108057501951
 Sym= A
 Ene=              15
 Spin= Alpha
 Occup=    0.00000
   1    -0.062257257045826
   2    -0.072642817698297
   3       1.2040516606397
   4       0.1283599741522
   5     0.023684146941975
   6     0.015549852506089
   7      0.43492889212073
   8     -0.73556068397885
   9     -0.53782757763625
  10    -0.017099084011516
  11    -0.060346679752414
  12    -0.026485706316064
  13     0.024622258909584
  14    -0.099245867404267
  15      0.40696924759354
  16      0.71694547382861
  17      -3.4071310581735
  18     -0.16792301306159
  19     0.071439041082632
  20     0.038654291532661
  21     0.099889510379792
  22       2.3020460796568
  23       1.4505417467695
  24      0.13153705808083
  25      0.15155545068855
  26     -0.29868165162869
  27      0.14949421829344
  28      0.25181522215902
  29     0.024378166843935
  30     -0.35614257337425
  31     0.041549569074789
  32     -0.25349779096081