[Molden Format]
made by pyscf v[2.0.1]
[Atoms] (AU)
C   1   6     0.00000000000000     0.00000000000000     0.00000000000000
C   2   6     2.88195139270757     0.00000000000000     0.00000000000000
H   3   1     3.63065534584939     0.00000000000000     1.92469232395612
H   4   1     3.63065534584939    -1.66683244701491    -0.96234616197806
H   5   1     3.63065534584939     1.66683244701491    -0.96234616197806
H   6   1    -0.74870395314182    -1.89545192279507     0.33421931462451
H   7   1    -0.74870395314182     0.65828354449729    -1.80861917410484
H   8   1    -0.74870395314182     1.23716837829778     1.47439985948033
[GTO]
1 0
 s    8 1.00
                  6665  0.00069158396281299
                  1000  0.0053257961529341
                   228   0.027060721042034
                 64.71    0.10165684614077
                 21.06     0.2745748236174
                 7.495    0.44829431892377
                 2.797    0.28490261071525
                0.5215   0.015194859206082
 s    8 1.00
                  6665  -0.00029326965268655
                  1000  -0.0023180354739745
                   228  -0.011499786038565
                 64.71  -0.046826727009787
                 21.06   -0.12846616875047
                 7.495   -0.30126627246289
                 2.797   -0.25563070233011
                0.5215      1.093793361012
 s    1 1.00
                0.1596                   1
 p    3 1.00
                 9.439   0.056979251590039
                 2.002    0.31320721150073
                0.5456    0.76037674173753
 p    1 1.00
                0.1517                   1
 d    1 1.00
                  0.55                   1

2 0
 s    8 1.00
                  6665  0.00069158396281299
                  1000  0.0053257961529341
                   228   0.027060721042034
                 64.71    0.10165684614077
                 21.06     0.2745748236174
                 7.495    0.44829431892377
                 2.797    0.28490261071525
                0.5215   0.015194859206082
 s    8 1.00
                  6665  -0.00029326965268655
                  1000  -0.0023180354739745
                   228  -0.011499786038565
                 64.71  -0.046826727009787
                 21.06   -0.12846616875047
                 7.495   -0.30126627246289
                 2.797   -0.25563070233011
                0.5215      1.093793361012
 s    1 1.00
                0.1596                   1
 p    3 1.00
                 9.439   0.056979251590039
                 2.002    0.31320721150073
                0.5456    0.76037674173753
 p    1 1.00
                0.1517                   1
 d    1 1.00
                  0.55                   1

3 0
 s    3 1.00
                 13.01   0.033498726389998
                 1.962    0.23480080117413
                0.4446     0.8136829578829
 s    1 1.00
                 0.122                   1
 p    1 1.00
                 0.727                   1

4 0
 s    3 1.00
                 13.01   0.033498726389998
                 1.962    0.23480080117413
                0.4446     0.8136829578829
 s    1 1.00
                 0.122                   1
 p    1 1.00
                 0.727                   1

5 0
 s    3 1.00
                 13.01   0.033498726389998
                 1.962    0.23480080117413
                0.4446     0.8136829578829
 s    1 1.00
                 0.122                   1
 p    1 1.00
                 0.727                   1

6 0
 s    3 1.00
                 13.01   0.033498726389998
                 1.962    0.23480080117413
                0.4446     0.8136829578829
 s    1 1.00
                 0.122                   1
 p    1 1.00
                 0.727                   1

7 0
 s    3 1.00
                 13.01   0.033498726389998
                 1.962    0.23480080117413
                0.4446     0.8136829578829
 s    1 1.00
                 0.122                   1
 p    1 1.00
                 0.727                   1

8 0
 s    3 1.00
                 13.01   0.033498726389998
                 1.962    0.23480080117413
                0.4446     0.8136829578829
 s    1 1.00
                 0.122                   1
 p    1 1.00
                 0.727                   1

[5d]
[7f]
[9g]

[MO]
 Sym= A
 Ene=               0
 Spin= Alpha
 Occup=    1.00000
   1       1.0026253294757
   2    -0.00040850135541869
   3    -0.012719382546584
   4    0.00096868999122088
   5    1.6714163851749e-07
   6    9.5311343333374e-09
   7    -0.0001567862587996
   8    7.9358682604829e-08
   9    3.6028939474885e-09
  10    9.0189069016787e-05
  11    6.8305582801634e-10
  12     5.32748776437e-09
  13    -0.00015619670534239
  14    -9.4117023473796e-09
  15    -1.4678497557194e-05
  16    -0.00044519425158092
  17    0.0018748475326672
  18     0.001142137512746
  19    -5.4518138438056e-08
  20    2.2090569707676e-08
  21    -0.00058737560399904
  22    -2.9520620276428e-08
  23    8.7856572747058e-09
  24    0.00025178564135139
  25    5.0970077637412e-10
  26    4.2551525496532e-09
  27    -0.000436101734226
  28    -1.0300553701541e-08
  29    3.0829360348114e-05
  30    0.00018722388835018
  31    -3.3990221353011e-05
  32    -4.9209871520612e-06
  33    -1.0977238326976e-05
  34    3.0852472777348e-05
  35    0.00018724449680131
  36    -3.3990665275152e-05
  37    1.196541616077e-05
  38    1.2300860554679e-06
  39    3.0749357214464e-05
  40    0.00018717746059726
  41    -3.3987171924178e-05
  42    -7.044774434042e-06
  43    9.746888577253e-06
  44    -0.002910634469412
  45    0.00073857013775094
  46    -0.00021471577567229
  47    -0.00078136062739896
  48    0.00013830738844857
  49    -0.0029104441675279
  50    0.00073866040103551
  51    -0.00021470937145125
  52    0.00027090547170379
  53    -0.00074582155325415
  54    -0.0029103871821208
  55    0.00073868405139162
  56    -0.00021470728527013
  57    0.00051045272290526
  58    0.00060751388217202
 Sym= A
 Ene=               1
 Spin= Alpha
 Occup=    1.00000
   1    -1.4687523350173e-05
   2    -0.00044490434993435
   3    0.0018750449775285
   4    -0.0011418904588077
   5    1.6533379748582e-08
   6    3.4798638778975e-08
   7    0.00058748882173724
   8    1.1057065706793e-08
   9    1.6304978756314e-08
  10    0.00025177323459013
  11    -3.4521264170935e-09
  12    3.1927519149854e-09
  13    -0.00043608390220094
  14    -6.5907753585189e-09
  15       1.0026253246224
  16    -0.00040839689270858
  17     -0.01271929336147
  18    -0.00096902770742361
  19    -1.2271847003192e-07
  20    -4.1003748009475e-08
  21    0.00015663025473848
  22    -5.7575490671514e-08
  23    -2.0080331392766e-08
  24    9.0164219471381e-05
  25    -3.3542611630031e-09
  26    6.7852049579714e-09
  27    -0.0001561734215475
  28    -5.7750840396134e-09
  29    -0.0029105838426699
  30    0.00073858153735568
  31    0.00021470547794771
  32    -5.2698151230871e-07
  33    0.00079350498011566
  34    -0.0029104333140169
  35    0.00073865235846494
  36    0.00021470037096372
  37    -0.00068692827933931
  38    -0.00039720142188711
  39    -0.0029106205046114
  40    0.00073856824798097
  41    0.00021470681277996
  42    0.00068745720808484
  43    -0.00039630310884301
  44    3.0856191708558e-05
  45    0.00018718376901739
  46    3.3999010530879e-05
  47    1.1674516054754e-05
  48    2.9377196476899e-06
  49    3.0849571154717e-05
  50    0.00018718855279483
  51    3.3998518169888e-05
  52    -8.3788374897863e-06
  53    8.641397233388e-06
  54    3.0913724022295e-05
  55    0.00018722590906441
  56    3.4000947299249e-05
  57    -3.2950749385758e-06
  58    -1.157926325365e-05
 Sym= A
 Ene=               2
 Spin= Alpha
 Occup=    1.00000
   1    -0.0050502390913088
   2      0.18324600376066
   3      0.10589443724642
   4     -0.12358754640917
   5     -0.34162780040928
   6     0.061220208157473
   7      -0.0608520039237
   8     -0.15988536525489
   9     0.028353895236191
  10    -0.011012594699085
  11    -0.0024915430844262
  12    -0.0066054258883215
  13    -0.014865837048713
  14     0.013772390617035
  15    -0.0024630735516811
  16    -0.020041883544183
  17     -0.01275660619495
  18     0.024203036351615
  19    -0.00074386687290831
  20    0.00087745756713564
  21     0.013945933498981
  22    0.0085423597073928
  23    0.0016841108162095
  24    -0.0040260384748562
  25    -0.0031031489658999
  26    -0.0025111103938725
  27     0.003018932295781
  28     0.016466725780586
  29    -0.0047237859999551
  30    -0.0037914397064986
  31     0.001931339508173
  32    0.00054159141345218
  33    -0.00039505863569845
  34    -0.018923237338855
  35    -0.021695782777351
  36    0.0016486038845808
  37    0.00090242024353792
  38    0.0001238345354971
  39     0.022684330197606
  40     0.040590407443867
  41    0.00043620221625066
  42    0.0010933668629639
  43    -0.00060350409919586
  44      0.43307306950094
  45      0.16021325848057
  46     0.012806718494427
  47      0.02966461486538
  48    -0.0050971522358721
  49    -0.019823252715179
  50    -0.037314272540749
  51    -0.0025668819165566
  52    -0.011445516283521
  53    0.0041881891585426
  54    -0.019427118903669
  55    -0.036720852743921
  56    -0.0025859447150016
  57    -0.012334542239643
  58    -0.00012080804327867
 Sym= A
 Ene=               3
 Spin= Alpha
 Occup=    1.00000
   1    -0.0024629028580176
   2    -0.020042727382812
   3    -0.012757257758146
   4    -0.024204819974173
   5    -0.00073420544615966
   6    0.00088425693591203
   7    -0.013946761393429
   8    -0.0031416135075693
   9    -0.0081204337877605
  10    3.9181042286942e-05
  11     0.016755449070414
  12    -0.0016834689276167
  13      0.00536580650789
  14    -0.00019647315759379
  15    -0.0050503506588927
  16      0.18324496749082
  17      0.10589367751917
  18      0.12358923655939
  19    -0.00096408601090108
  20      0.34706857903354
  21     0.060852787208147
  22    -0.00015795152947147
  23      0.16238000219917
  24     0.019450776318947
  25     0.013995846500676
  26    -0.00040310675124229
  27    0.0027220300432206
  28    -6.205484722289e-05
  29      0.43307323631958
  30      0.16021353841894
  31    -0.012806676896984
  32    -0.00013139872299837
  33     -0.03009904141935
  34    -0.019429362255647
  35    -0.036721666342703
  36    0.0025860701785222
  37    0.0022607536209815
  38     0.012126074398332
  39    -0.019821061311689
  40    -0.037313243824226
  41    0.0025668549800184
  42    -0.0021371273777651
  43     0.011998997067498
  44    -0.0047241577270689
  45    -0.0037912653549833
  46    -0.0019314018929811
  47    0.00029496138855648
  48    -0.00060197509380105
  49     0.022685206610268
  50      0.04059085466765
  51    -0.00043621720635311
  52    0.0004044697835326
  53    -0.0011815124640265
  54    -0.018923255978444
  55    -0.021695841551284
  56    -0.0016486557997596
  57    -0.00027863888930027
  58    -0.00086723003982415
 Sym= A
 Ene=               4
 Spin= Alpha
 Occup=    1.00000
   1    -0.0050507912241169
   2      0.18324648766457
   3      0.10589474846973
   4     -0.12358752555808
   5      0.22383136166947
   6      0.26524848939786
   7    -0.060852003322262
   8       0.1044974778938
   9      0.12428800929878
  10     0.006078085980054
  11    -0.010681563801728
  12     0.017999239684464
  13    -0.0049985108720298
  14    -0.0090438210071647
  15    -0.0024631796468205
  16    -0.020041599118436
  17    -0.012756417864119
  18     0.024202917036904
  19     0.001133506241189
  20    0.00020369645002883
  21     0.013945887195949
  22    -0.0028118945678078
  23    -0.0082407906294581
  24    -0.0033410330540945
  25    -0.012709112185201
  26    0.0029677570851165
  27    0.0034144512034883
  28    -0.010920662491329
  29    -0.018924703514463
  30    -0.021696482280549
  31    0.0016486513588395
  32    -0.00034391264153889
  33    -0.00084337720697831
  34     0.022683915458841
  35     0.040590147266604
  36    0.00043621185049145
  37    -0.0010693017750453
  38    -0.00064519975278651
  39    -0.0047215875994088
  40    -0.0037904566650765
  41    0.0019312612070184
  42    -0.00061303452879172
  43    -0.00027146515620697
  44    -0.019822154869419
  45    -0.037313708243975
  46    -0.0025668399178447
  47    0.0093498947230363
  48    0.0078180078852539
  49    -0.019427474705203
  50    -0.036721244542379
  51    -0.0025859523043619
  52    0.0060626209912096
  53     0.010742439251137
  54      0.43307303626439
  55      0.16021317836009
  56     0.012806717060019
  57    -0.019246602928546
  58    -0.023141729302885
 Sym= A
 Ene=               5
 Spin= Alpha
 Occup=    1.00000
   1    -0.0024626997719259
   2    -0.020044757750395
   3    -0.012758559977051
   4    -0.024205376189326
   5    0.0011325623567548
   6    0.00019227121177059
   7    -0.013947004434512
   8    -0.0054618507652299
   9    0.0067802371179624
  10    -0.0047526402663742
  11    -0.0082074743172304
  12    -0.001511190052929
  13     0.002599190407052
  14     0.014608885658302
  15    -0.005050243251775
  16      0.18324500660279
  17      0.10589358418393
  18      0.12359080466041
  19      0.30105207178052
  20     -0.17269851220614
  21       0.0608535077042
  22      0.14070409670952
  23     -0.08105277310617
  24    -0.0045015537573122
  25    -0.0069440781048354
  26     -0.01556520336674
  27    -0.011107051982975
  28     0.012151795395278
  29    -0.019427995972265
  30     -0.03672099407678
  31    0.0025860583385413
  32    0.0093711064800397
  33    -0.0080209846855783
  34    -0.019820856706659
  35    -0.037313267558449
  36     0.002566883411017
  37     0.011460019981209
  38    -0.0041486495771181
  39      0.43307322257638
  40      0.16021347804234
  41    -0.012806644354664
  42    -0.026000842816133
  43     0.015163346269265
  44     0.022684422719205
  45     0.040590797037942
  46    -0.00043627306514186
  47    -0.0012255665341105
  48    0.00024044668608261
  49    -0.018922932869948
  50    -0.021695322380016
  51    -0.0016486728004856
  52    -0.00061172636400929
  53    0.00067485811028104
  54    -0.0047261593469582
  55    -0.0037918621739391
  56    -0.001931497020039
  57    -0.00066868414441266
  58    4.5655707631749e-05
 Sym= A
 Ene=               6
 Spin= Alpha
 Occup=    1.00000
   1    -0.0024628988910389
   2    -0.020044348825849
   3    -0.012758375586429
   4    -0.024206463718398
   5    -0.00039773413866285
   6    -0.0010790862731715
   7    -0.013947527865896
   8    0.0086037342874789
   9     0.001338968987169
  10    -0.0022273653824924
  11    -0.0085478018100287
  12    0.0031945505617006
  13    0.0040570778561871
  14      -0.0144124148666
  15    -0.0050506631402803
  16      0.18324492727795
  17       0.1058934869116
  18      0.12359165397334
  19     -0.30008750758283
  20     -0.17436863832373
  21     0.060853918311744
  22      -0.1405459564231
  23    -0.081326503280028
  24    -0.0038968841152228
  25    -0.0070515864429161
  26     0.015968276933792
  27    -0.010757993305235
  28    -0.012089750253031
  29    -0.019819715100845
  30    -0.037312580113976
  31    0.0025668658735859
  32    -0.0093228537031605
  33    -0.0078503943889942
  34       0.4330732734746
  35       0.1602135506599
  36     -0.01280661848235
  37     0.026132258151382
  38     0.014935748739567
  39     -0.01942845130015
  40    -0.036721386206728
  41    0.0025860961216196
  42    -0.011631925730096
  43    -0.0041051007673649
  44    -0.018924463232618
  45    -0.021696082362178
  46    -0.0016487510884035
  47    0.0008902587844583
  48    0.00019229357555605
  49    -0.004723197294334
  50    -0.0037905691854109
  51    -0.0019314215042167
  52    0.00037385669018076
  53    0.00055644304711427
  54     0.022684674372732
  55     0.040590803040434
  56    -0.00043628855172108
  57    0.00082105638298593
  58    0.00094105299032005
 Sym= A
 Ene=               7
 Spin= Alpha
 Occup=    1.00000
   1    -0.0050506171982205
   2      0.18324579303547
   3      0.10589411447731
   4     -0.12359026970816
   5      0.11779545074161
   6     -0.32646764359909
   7    -0.060853264761558
   8     0.055387408080533
   9     -0.15264136119003
  10     0.015986398126208
  11     0.013172983759578
  12    -0.011393795042394
  13    0.00072172908052604
  14    -0.0047284703064701
  15    -0.0024629820379657
  16    -0.020044509573634
  17    -0.012758345078833
  18     0.024204577911422
  19    -0.00038842714081776
  20    -0.0010828272537984
  21     0.013946637358497
  22    -0.0057298663872098
  23    0.0065558781023884
  24    0.0004257952179609
  25     0.015812142167452
  26    -0.00045671160917117
  27    0.0055890547623302
  28    -0.005545966717084
  29     0.022683574353875
  30     0.040590415077638
  31    0.00043628486100411
  32    -2.4047377975233e-05
  33     0.001248745198403
  34    -0.0047242604143505
  35    -0.0037912222739139
  36    0.0019314114342274
  37    7.1240638680632e-05
  38    0.00066651749026189
  39    -0.018924383066316
  40    -0.021695842027453
  41    0.0016487005043007
  42    -0.00055833724607424
  43    0.00071952734381159
  44    -0.019426090043992
  45    -0.036720441218492
  46    -0.0025859733589222
  47    0.0062719779630808
  48    -0.010621612715592
  49      0.43307313697889
  50      0.16021330469287
  51     0.012806656569127
  52    -0.010418050941874
  53     0.028238914710116
  54     -0.01982203062011
  55    -0.037313720725012
  56    -0.0025669035562995
  57    0.0020956097814665
  58    -0.012006255431479
 Sym= A
 Ene=               8
 Spin= Alpha
 Occup=    1.00000
   1     0.005523896247052
   2     -0.19659121810874
   3     -0.14784148543639
   4     -0.36748618721378
   5    -5.685330888179e-07
   6    2.2528713967351e-06
   7     -0.17050410998521
   8    -2.9116811201026e-07
   9    1.0200586224249e-06
  10     0.015972425592239
  11    -1.7540025155102e-08
  12    7.4292808592736e-08
  13    -0.027665207117765
  14    4.3637330524574e-08
  15    0.0055248069523565
  16     -0.19659476273734
  17     -0.14784356691269
  18       0.3674844524583
  19    4.5061693292919e-07
  20    1.5181817902495e-06
  21      0.17050329274272
  22    2.4429583486056e-07
  23    6.5929566272581e-07
  24      0.01597243795696
  25    -4.7805062998634e-08
  26    -2.0305196058333e-08
  27    -0.027664958140336
  28    4.4315863646309e-08
  29     0.022349968807005
  30     0.037480052297126
  31    0.0094525938717534
  32    1.2585996633277e-06
  33    0.0013643050331354
  34      0.02234786318803
  35     0.037479372382641
  36     0.009452662079617
  37    -0.0011822687398832
  38    -0.00068111012450346
  39     0.022348609484138
  40     0.037479744258963
  41    0.0094526418033594
  42    0.0011810039850971
  43    -0.00068323874123522
  44     0.022351951336372
  45     0.037480503383798
  46    -0.0094525379484546
  47    -0.0013435513305948
  48    0.00023570648893912
  49     0.022349194533855
  50     0.037479403114056
  51    -0.0094526285751298
  52    0.00046776312710069
  53    -0.0012815134846138
  54     0.022352186962447
  55     0.037480500321886
  56    -0.0094525271006291
  57    0.00087579649429113
  58    0.0010457562607433
 Sym= A
 Ene=               9
 Spin= Alpha
 Occup=    0.00000
   1     -0.16449712903079
   2     -0.21107231566769
   3       3.6231241871327
   4      0.32436808433734
   5    7.9476146227792e-05
   6    -0.00038533458650107
   7       1.7670370537285
   8    0.00025683874009271
   9    -0.00053918993711518
  10    -0.083705888726535
  11    0.00028783381636869
  12    -0.0019573160248658
  13      0.14878499841165
  14    3.7369003575621e-05
  15      0.27912056120203
  16      0.53522799663221
  17      -2.1042391967718
  18     -0.34653225922062
  19    0.00010945402349752
  20    4.342670490648e-05
  21       3.6672382890918
  22    -4.0891083430125e-05
  23    -0.00034888761927955
  24      0.13334470182303
  25    -9.0885067337981e-05
  26    -0.00058926861772331
  27     -0.23072978373276
  28    0.00023361113887745
  29     -0.16877902093498
  30     -0.49714725757561
  31     -0.29942884833431
  32    -8.5110894896328e-05
  33      0.18435170530529
  34     -0.16862747885046
  35     -0.49754689192022
  36     -0.29950120556945
  37     -0.15941365160101
  38    -0.092273733928473
  39     -0.16915737933798
  40     -0.49745313343061
  41     -0.29933454915846
  42      0.15994203788118
  43    -0.091888488480899
  44     -0.15236438163515
  45      0.12388037073074
  46    0.0090755111824637
  47    0.0029767575363789
  48    -0.0026582456691468
  49     -0.15416044861284
  50      0.12359996787081
  51    0.0083533001320123
  52    0.00044794287438908
  53    0.0030097350357257
  54     -0.15207521911792
  55      0.12380600655406
  56    0.0091451185948544
  57    -0.0030446756008381
  58    -0.0020728767055004
 Sym= A
 Ene=              10
 Spin= Alpha
 Occup=    0.00000
   1     0.058397859748868
   2     0.066595429070578
   3      -1.1604749186598
   4     -0.12841243668146
   5     0.022370359863603
   6    -0.015715507018251
   7     -0.44309758541599
   8     -0.51777029914533
   9      0.48574404904332
  10     0.051226462356662
  11     0.063137826621379
  12    0.0048988408167746
  13    -0.014766370598689
  14     -0.09676642591997
  15      -0.4084474888876
  16      -0.7214576843834
  17       3.4020463272925
  18      0.16368239404462
  19     0.069719728224198
  20    -0.033059893577424
  21     -0.10066090015951
  22       2.1714873863652
  23      -1.5026466059544
  24     -0.14162666700467
  25     -0.16463030792142
  26     -0.29890146228878
  27     -0.15363398440516
  28      0.25555670648186
  29    0.0044392358798499
  30      0.37937492582414
  31    -0.045210404296853
  32      -0.2412428844206
  33    0.0027801112639898
  34      -0.1087327171489
  35      0.17780639631329
  36    -0.028144192534745
  37     -0.16109590830224
  38      0.21279603288922
  39      -1.6570988360923
  40      -1.8309602473092
  41      0.25506343417953
  42      0.41504271822753
  43     -0.21146674893559
  44     0.077265819242481
  45    -0.033935698541734
  46     0.089899835584913
  47     0.042568857135572
  48    -0.035682339981754
  49     0.074461447959536
  50      0.22337013718701
  51    -0.060922153773745
  52     0.044769175770093
  53    -0.008589526993972
  54     0.042372067347431
  55    -0.055710228252066
  56    -0.027594180354926
  57     0.049766924114918
  58     -0.03549098689234
 Sym= A
 Ene=              11
 Spin= Alpha
 Occup=    0.00000
   1      0.40842313352515
   2       0.7214163689748
   3      -3.4017440076186
   4      0.16360207955107
   5     0.074201015039022
   6     -0.01922788934852
   7     -0.10045022602848
   8       2.6288430594146
   9     -0.24193312912546
  10      0.25070998027003
  11      0.03792767557281
  12      0.14523341069184
  13      0.21531451653911
  14     -0.30154818250601
  15    -0.058297689234787
  16      -0.0663909099481
  17       1.1602628332965
  18     -0.12850435253381
  19     0.027523967168057
  20    -0.0020289461026459
  21     -0.44316657947755
  22     -0.70845183017713
  23    -0.039976818750396
  24    -0.028390683800118
  25    -0.013374560921529
  26    -0.037463507223579
  27     0.028423730537055
  28      0.11486787952882
  29    -0.042774810608256
  30     0.055905777410004
  31    -0.027452394880201
  32     0.061413363539818
  33    -0.004506698411635
  34    -0.073426096724368
  35     -0.22340325992409
  36    -0.061329031192768
  37     0.040222736341438
  38    -0.022003158818925
  39    -0.077737437825332
  40     0.033790666680477
  41     0.090038519392245
  42     0.055906889722914
  43    0.00025454713989923
  44       1.6551871594735
  45       1.8307252641098
  46       0.2540809522108
  47      0.45319915863636
  48      -0.1045132411405
  49      0.11077091722518
  50      -0.1766141447709
  51    -0.027647370590735
  52     -0.26108710203402
  53    -0.059002044582602
  54    -0.0051778793892835
  55     -0.38029525924654
  56    -0.045632119995372
  57     -0.18725738201644
  58      0.15358245073104
 Sym= A
 Ene=              12
 Spin= Alpha
 Occup=    0.00000
   1      0.40845286505591
   2      0.72148000976266
   3      -3.4020140845419
   4       0.1636658346127
   5    -0.020347327151526
   6     0.074387483516543
   7     -0.10057024532561
   8      -1.1046352420571
   9       2.3987024158202
  10     -0.28206048695447
  11     -0.28018516687556
  12      0.21246132220226
  13    -0.090991681679469
  14       0.1179161579934
  15    -0.058412155066591
  16    -0.066629962558594
  17       1.1604662627301
  18     -0.12838460441197
  19    -0.011630331704078
  20      0.02476492244772
  21     -0.44309408806933
  22      0.38929354442153
  23     -0.59413346458918
  24     0.012324464135088
  25      0.10621426933304
  26    0.0080252074956434
  27      0.05145461519484
  28    -0.045428164267251
  29     -0.07724192647822
  30     0.033912404715067
  31     0.089863806030159
  32    -0.027837925473772
  33     0.048111641615293
  34    -0.042285452881729
  35     0.055951725959253
  36    -0.027541660388609
  37    -0.026339244428449
  38     0.055205255822801
  39    -0.074590759786859
  40     -0.22359803752162
  41    -0.060942095553155
  42    -0.00069884585223259
  43     0.045537907985497
  44    -0.0050195524505836
  45      -0.3802129665355
  46    -0.045387192585603
  47    -0.039218312495053
  48     -0.23799012611013
  49       1.6570191703705
  50       1.8309016081672
  51      0.25501600397373
  52     -0.13594102645841
  53      0.44550065329631
  54      0.10937222394591
  55     -0.17691618671268
  56    -0.028056766922824
  57      0.18158651543292
  58     -0.19578652909728
 Sym= A
 Ene=              13
 Spin= Alpha
 Occup=    0.00000
   1      -0.2791545196617
   2     -0.53531140816905
   3       2.1043721972345
   4     -0.34656603993203
   5    4.8609569613592e-05
   6    0.00011979921945261
   7       3.6672324280038
   8    -0.00037609818171917
   9    -0.00010994635748099
  10     -0.13334290436827
  11    -0.00026113550784799
  12    0.00061018759931502
  13      0.23073419141906
  14    8.9948600302188e-05
  15      0.16450702840488
  16      0.21110377355185
  17      -3.6231713898894
  18      0.32434527149201
  19    -0.00035312111835384
  20    0.0001282692226218
  21       1.7670289915652
  22    -0.00051923192420995
  23    0.00042962252954349
  24     0.086323741927667
  25    -1.6116977095033e-05
  26    0.0024764191769334
  27       -0.147268122023
  28    -0.00027527303503126
  29      0.15236042092758
  30     -0.12390628071693
  31    0.0090928262236042
  32    -0.0020963800484796
  33    0.0033649164218866
  34       0.1520812763072
  35     -0.12380246226701
  36    0.0091508805333062
  37    -0.0025649846786054
  38    -0.0026439528503606
  39      0.15416187098593
  40     -0.12356593193823
  41    0.0083555882024468
  42    0.0030505890126644
  43    -8.8435249787635e-05
  44       0.1687541979768
  45      0.49710640082116
  46     -0.29942107371408
  47      0.18149752436507
  48     -0.03206380693707
  49      0.16913829991972
  50      0.49738731000147
  51     -0.29933303734587
  52    -0.062710031284842
  53      0.17348472479027
  54      0.16864577542257
  55      0.49759384426361
  56     -0.29949668435844
  57     -0.11856500613597
  58      -0.1409677232698
 Sym= A
 Ene=              14
 Spin= Alpha
 Occup=    0.00000
   1     0.058341984505864
   2     0.066461643049334
   3      -1.1610607049936
   4     -0.12861789402587
   5     -0.02495589275053
   6    -0.011198983187458
   7     -0.44336211290098
   8      0.67901833829366
   9      0.20616508885022
  10    0.0051818354792767
  11     0.051969426536114
  12    -0.033355644543192
  13     -0.04136524579044
  14      0.10320610029266
  15     -0.40852780851689
  16     -0.72160132742004
  17       3.4023737087714
  18          0.1637909368
  19    -0.062942992855397
  20    -0.044060212524567
  21     -0.10110099858192
  22      -2.3859506084932
  23      -1.1293971649647
  24     -0.10798323930063
  25     -0.13916009028481
  26      0.31790027044471
  27     -0.13308698735972
  28     -0.27007417111454
  29     -0.10813310157629
  30      0.17780815429222
  31    -0.028386563265596
  32      0.26579402267434
  33     0.032827618561053
  34      -1.6554743303316
  35       -1.830694742362
  36      0.25428524403345
  37     -0.38976252720092
  38     -0.25402390387055
  39    0.0026123831179852
  40      0.37918504345506
  41     -0.04471498808409
  42      0.12392545320218
  43      0.20743349215808
  44     0.073733098364605
  45      0.22321359157436
  46    -0.061127569138398
  47    -0.030057435419693
  48    -0.034059587736053
  49     0.043571389999794
  50    -0.055480614986339
  51    -0.027195734117055
  52    -0.055863337129978
  53    -0.024933356984805
  54     0.076932576932653
  55    -0.034017449396779
  56      0.08978797485498
  57    -0.052425481659485
  58    -0.018614070127493
 Sym= A
 Ene=              15
 Spin= Alpha
 Occup=    0.00000
   1     0.058300129882767
   2     0.066388435391448
   3      -1.1603332871009
   4      -0.1285224238699
   5    0.0027416089075622
   6     0.027466300892719
   7     -0.44322692887069
   8     -0.16158885646764
   9     -0.69064257132753
  10    -0.0001429714281781
  11      -0.1154938540567
  12      0.03169728760028
  13    -0.044904907257622
  14    -0.0066880137628296
  15     -0.40841273163519
  16     -0.72137986230802
  17       3.4017973573079
  18      0.16360348100507
  19    -0.0059528913811983
  20      0.07644003526246
  21     -0.10051937484653
  22      0.21617600356051
  23       2.6310075533219
  24      0.33789731063542
  25       0.3035513225728
  26    -0.025239207827718
  27      0.12452570292262
  28     0.014813139339292
  29      -1.6552502248066
  30      -1.8308021759703
  31      0.25410729561948