[Molden Format]
made by pyscf v[2.0.1]
[Atoms] (AU)
C   1   6     0.00000000000000     0.00000000000000     0.00000000000000
C   2   6     2.85207482267819     0.00000000000000     0.00000000000000
F   3   9     3.65415199667903     0.00000000000000     2.45977207315200
H   4   1     3.58561868306314    -1.66499644088808    -0.96128614334650
H   5   1     3.58561868306314     1.66499644088808    -0.96128614334650
H   6   1    -0.73354386038494     1.66499644088808     0.96128614334650
F   7   9    -0.80207717400084     0.00000000000000    -2.45977207315200
H   8   1    -0.73354386038494    -1.66499644088808     0.96128614334650
[GTO]
1 0
 s    8 1.00
                  6665  0.00069158396281299
                  1000  0.0053257961529341
                   228   0.027060721042034
                 64.71    0.10165684614077
                 21.06     0.2745748236174
                 7.495    0.44829431892377
                 2.797    0.28490261071525
                0.5215   0.015194859206082
 s    8 1.00
                  6665  -0.00029326965268655
                  1000  -0.0023180354739745
                   228  -0.011499786038565
                 64.71  -0.046826727009787
                 21.06   -0.12846616875047
                 7.495   -0.30126627246289
                 2.797   -0.25563070233011
                0.5215      1.093793361012
 s    1 1.00
                0.1596                   1
 p    3 1.00
                 9.439   0.056979251590039
                 2.002    0.31320721150073
                0.5456    0.76037674173753
 p    1 1.00
                0.1517                   1
 d    1 1.00
                  0.55                   1

2 0
 s    8 1.00
                  6665  0.00069158396281299
                  1000  0.0053257961529341
                   228   0.027060721042034
                 64.71    0.10165684614077
                 21.06     0.2745748236174
                 7.495    0.44829431892377
                 2.797    0.28490261071525
                0.5215   0.015194859206082
 s    8 1.00
                  6665  -0.00029326965268655
                  1000  -0.0023180354739745
                   228  -0.011499786038565
                 64.71  -0.046826727009787
                 21.06   -0.12846616875047
                 7.495   -0.30126627246289
                 2.797   -0.25563070233011
                0.5215      1.093793361012
 s    1 1.00
                0.1596                   1
 p    3 1.00
                 9.439   0.056979251590039
                 2.002    0.31320721150073
                0.5456    0.76037674173753
 p    1 1.00
                0.1517                   1
 d    1 1.00
                  0.55                   1

3 0
 s    8 1.00
                 14710  0.00072067370873197
                  2207  0.0055504869689163
                 502.8   0.028254207662589
                 142.6    0.10639582836653
                 46.47    0.28668420124307
                  16.7    0.44843796582416
                 6.356    0.26464118141135
                 1.316   0.015326060993048
 s    8 1.00
                 14710  -0.00032119389049893
                  2207  -0.0025461915683188
                 502.8  -0.012643359507821
                 142.6   -0.05195749170489
                 46.47   -0.14344713812646
                  16.7   -0.33243762329603
                 6.356   -0.21865906750347
                 1.316     1.0955904138622
 s    1 1.00
                0.3897                   1
 p    3 1.00
                 22.67   0.064834021493887
                 4.977    0.34053535983101
                 1.347    0.73464640679382
 p    1 1.00
                0.3471                   1
 d    1 1.00
                  1.64                   1

4 0
 s    3 1.00
                 13.01   0.033498726389998
                 1.962    0.23480080117413
                0.4446     0.8136829578829
 s    1 1.00
                 0.122                   1
 p    1 1.00
                 0.727                   1

5 0
 s    3 1.00
                 13.01   0.033498726389998
                 1.962    0.23480080117413
                0.4446     0.8136829578829
 s    1 1.00
                 0.122                   1
 p    1 1.00
                 0.727                   1

6 0
 s    3 1.00
                 13.01   0.033498726389998
                 1.962    0.23480080117413
                0.4446     0.8136829578829
 s    1 1.00
                 0.122                   1
 p    1 1.00
                 0.727                   1

7 0
 s    8 1.00
                 14710  0.00072067370873197
                  2207  0.0055504869689163
                 502.8   0.028254207662589
                 142.6    0.10639582836653
                 46.47    0.28668420124307
                  16.7    0.44843796582416
                 6.356    0.26464118141135
                 1.316   0.015326060993048
 s    8 1.00
                 14710  -0.00032119389049893
                  2207  -0.0025461915683188
                 502.8  -0.012643359507821
                 142.6   -0.05195749170489
                 46.47   -0.14344713812646
                  16.7   -0.33243762329603
                 6.356   -0.21865906750347
                 1.316     1.0955904138622
 s    1 1.00
                0.3897                   1
 p    3 1.00
                 22.67   0.064834021493887
                 4.977    0.34053535983101
                 1.347    0.73464640679382
 p    1 1.00
                0.3471                   1
 d    1 1.00
                  1.64                   1

8 0
 s    3 1.00
                 13.01   0.033498726389998
                 1.962    0.23480080117413
                0.4446     0.8136829578829
 s    1 1.00
                 0.122                   1
 p    1 1.00
                 0.727                   1

[5d]
[7f]
[9g]

[MO]
 Sym= A
 Ene=               0
 Spin= Alpha
 Occup=    1.00000
   1       1.0021023025727
   2    0.0048956351978408
   3    -0.0084487319083681
   4    -0.00033170122237539
   5    5.0858588283411e-14
   6    -0.00077541106129916
   7    -0.0011704982696051
   8    -1.2913213460907e-14
   9    -0.00046360623477202
  10    0.00011220947559478
  11    -7.3893055874225e-07
  12    2.9302243830213e-14
  13    -0.00012358605101919
  14    3.5761977853838e-15
  15    -0.00017108187667259
  16    0.0001229874274445
  17     0.002679720747143
  18    -0.0003799534526075
  19    3.5411185579855e-15
  20    8.6388810467597e-06
  21    -0.0013860165257744
  22    3.221084120183e-14
  23    0.00010731661821626
  24    2.0951476168591e-05
  25    -0.00010422516686167
  26    1.4937074577859e-15
  27    -3.8234801340291e-05
  28    -3.7452619685504e-15
  29    -3.1057643292426e-05
  30    -5.1372464671686e-05
  31    -1.4347820574517e-05
  32    1.1689908510049e-05
  33    8.1004520160086e-15
  34    1.0466542350944e-05
  35    -9.6220796207165e-05
  36    2.3631061068141e-15
  37    -2.961128236667e-06
  38    -5.6935764069037e-07
  39    8.1183950000505e-06
  40    -1.4289848513266e-16
  41    3.2554004234409e-05
  42    -2.768318388251e-16
  43    -8.0589984689643e-05
  44    0.00022135041768311
  45    -8.4932000601589e-05
  46    2.4610603939556e-05
  47    1.0780884546809e-05
  48    -8.0589984701841e-05
  49    0.00022135041761903
  50    -8.4932000598056e-05
  51    -2.4610603938948e-05
  52    1.0780884546597e-05
  53    0.00065173205449661
  54    0.0013926282409905
  55    4.4031575970301e-05
  56    0.00012826623745003
  57    0.00016692327490676
  58    0.00016003567126512
  59    0.00067176723765705
  60    3.2779577137191e-05
  61    9.7261402333273e-05
  62    -5.1327186708255e-13
  63    0.00035525420376932
  64    -0.00015869035794373
  65    -3.648720489853e-13
  66    -0.00080143601808298
  67    -0.00019163375926003
  68    -0.00011593698901602
  69    -8.3546616930858e-15
  70    -2.4373334048549e-05
  71    -3.4247095673944e-15
  72    0.00065173205434696
  73    0.0013926282408749
  74    4.4031575966692e-05
  75    -0.00012826623745113
  76    0.00016692327491269
 Sym= A
 Ene=               1
 Spin= Alpha
 Occup=    1.00000
   1    -0.00017108210525823
   2    0.00012300420153978
   3    0.0026797325300769
   4    0.00037997891010416
   5    7.8909559635213e-15
   6    -8.6337646039273e-06
   7    0.0013860249123766
   8    -5.2474413367649e-16
   9    -0.00010731714333985
  10    2.0949301598807e-05
  11    -0.00010422478329206
  12    2.8571188496157e-15
  13    -3.8232817544614e-05
  14    -1.5050557148062e-15
  15       1.0021023025833
  16    0.0048956423023518
  17     -0.00844872582837
  18    0.00033166826762162
  19    -2.9529677394603e-14
  20    0.00077542271310466
  21    0.0011704850573756
  22    -8.039286665332e-15
  23    0.0004636123030239
  24    0.00011220933118806
  25    -7.3932788869794e-07
  26    1.9134519506826e-15
  27    -0.00012358363087303
  28    -1.5571718993946e-15
  29    0.00016003859130188
  30    0.00067177170536916
  31    3.2782073302287e-05
  32    -9.7273576705011e-05
  33    7.592472820012e-15
  34    -0.00035525340396948
  35    0.0001586842441534
  36    6.9184318534851e-15
  37    0.00080143677732442
  38    -0.00019163393514377
  39    -0.00011593626775997
  40    3.2886540757929e-16
  41    -2.4373050801282e-05
  42    2.8818121057371e-17
  43    0.00065172115657054
  44    0.0013926231902381
  45    -4.403194258298e-05
  46    -0.00012826713808842
  47    -0.00016692335848646
  48    0.00065172115652489
  49    0.0013926231902142
  50    -4.4031942580934e-05
  51    0.00012826713808996
  52    -0.00016692335848826
  53    -8.0589082714943e-05
  54    0.00022134748451129
  55    8.4932844842969e-05
  56    -2.4610904841701e-05
  57    -1.0780925596544e-05
  58    -3.1057831348825e-05
  59    -5.1374244356395e-05
  60    -1.4350841208728e-05
  61    -1.1708437142482e-05
  62    -3.9017716991448e-14
  63    -1.0468686665761e-05
  64    9.6206122966084e-05
  65    -2.7769807339517e-14
  66    2.9595875345206e-06
  67    -5.6941739896995e-07
  68    8.1183376971778e-06
  69    -5.5706900614579e-16
  70    3.2553985227765e-05
  71    -2.8954263666106e-16
  72    -8.058908273585e-05
  73    0.00022134748449309
  74    8.493284484224e-05
  75    2.461090484171e-05
  76    -1.0780925595957e-05
 Sym= A
 Ene=               2
 Spin= Alpha
 Occup=    1.00000
   1    -0.00017309208877313
   2    0.00023419630862031
   3    0.0030409781137287
   4    -0.00032943650205751
   5    9.4185586020111e-13
   6    -0.00086763663426152
   7    9.5087497875616e-05
   8    -4.5705528737023e-12
   9    -0.0014086521738517
  10    0.00014842260980423
  11    0.00010818463250103
  12    4.5990272832278e-12
  13    3.7983229524879e-05
  14    8.9253492335978e-13
  15    1.9112195028509e-05
  16    6.4493547652896e-06
  17    -0.00089864365037959
  18    0.00010899044344792
  19    1.1409022603089e-12
  20    -1.5005804644024e-05
  21    0.00059990055078315
  22    5.1652610815063e-12
  23    0.0001478257393037
  24    6.9538173018738e-05
  25    -1.212335499914e-05
  26    3.0622539228018e-14
  27    -4.3021326869676e-05
  28    -2.1755056491614e-13
  29    -3.0024104695309e-05
  30    -5.4266073688437e-05
  31    0.00013518280919038
  32    2.3090078748946e-05
  33    -4.1963577864512e-13
  34    -9.5351270010557e-06
  35    -0.00017744108413082
  36    -8.1090957970829e-13
  37    -1.3576238557089e-05
  38    -5.1716391136239e-06
  39    -1.8830803577469e-06
  40    -6.655654211492e-15
  41    1.4843074444773e-06
  42    -2.5744338629961e-14
  43    2.539592759118e-05
  44    -0.00010435665818256
  45    4.6310866701926e-05
  46    -1.2701126390053e-05
  47    1.2030854369509e-05
  48    2.5395927560807e-05
  49    -0.00010435666647706
  50      4.6310867212e-05
  51    1.2701126535657e-05
  52    1.203085437536e-05
  53    -0.00025082995837496
  54    -0.00011146511173744
  55    9.9736618765553e-06
  56    -2.8846155404228e-06
  57    0.00015624339048821
  58       1.0009673272506
  59    0.00080515573063134
  60    -0.0052451947637137
  61    0.00064112501368895
  62    -8.5945479981027e-11
  63     0.002048179652283
  64    -0.00025276012349889
  65    -6.0687828669762e-11
  66    -0.00062985134255546
  67    -0.00014050424509552
  68    -8.058688220817e-05
  69    -1.5180308534271e-12
  70    -7.4798741290597e-06
  71    -5.9869737960564e-13
  72    -0.00025082997219951
  73    -0.00011146512603921
  74    9.9736617761519e-06
  75    2.8846158287565e-06
  76    0.0001562433909909
 Sym= A
 Ene=               3
 Spin= Alpha
 Occup=    1.00000
   1    1.9108036072798e-05
   2    6.4641811343939e-06
   3    -0.00089858398670845
   4    -0.00010894739623084
   5    5.0037231187182e-14
   6    1.4917611450704e-05
   7    -0.00059977285486986
   8    2.1842228798264e-13
   9    -0.00014789336974524
  10    6.9543914435507e-05
  11    -1.2171951490906e-05
  12    2.3167420793147e-15
  13    -4.3032609942068e-05
  14    1.0095725454174e-14
  15    -0.00017316769467881
  16    0.00023344762208891
  17    0.0030406646819086
  18    0.00032909609247772
  19    4.2409877572044e-14
  20    0.00086659624596567
  21    -9.5103158909875e-05
  22    -1.9193877835151e-13
  23    0.0014085645944596
  24    0.00014834425439261
  25    0.00010816772618285
  26    -1.9762922768714e-13
  27    3.7980457158699e-05
  28    -3.8500140531742e-14
  29       1.0009673107141
  30    0.00080992235261055
  31    -0.0052395022661656
  32    -0.0006397088741407
  33    -3.6932403751929e-12
  34    -0.0020449412643235
  35    0.00025373553846157
  36    -2.608343331044e-12
  37    0.00063209315089252
  38    -0.0001405798976831
  39    -8.0640303201236e-05
  40    6.5204921221866e-14
  41    -7.4893020456147e-06
  42    2.5700822177336e-14
  43    -0.00025085738606707
  44    -0.00011132172032557
  45    -9.9889699072591e-06
  46    2.8858345121091e-06
  47    -0.00015628849727731
  48    -0.00025085738547159
  49    -0.00011132171971705
  50    -9.9889699112255e-06
  51    -2.8858344996616e-06
  52    -0.00015628849725563
  53    2.5386631669704e-05
  54    -0.00010429451064845
  55    -4.6313125656413e-05
  56    1.2700925203163e-05
  57    -1.2035113885661e-05
  58    -3.0029151280918e-05
  59    -5.4285233759675e-05
  60    0.0001351449052996
  61    -2.3125125123153e-05
  62    -8.6023547621417e-14
  63    9.5054554137035e-06
  64    0.00017740653429951
  65    -8.2879232106076e-14
  66    1.3558686745125e-05
  67    -5.1717114651505e-06
  68    -1.8806044833273e-06
  69    -9.1419995284443e-16
  70    1.4863919317911e-06
  71    6.3412344956505e-16
  72    2.5386631659861e-05
  73    -0.00010429451030331
  74    -4.6313125634594e-05
  75    -1.2700925196714e-05
  76    -1.2035113884996e-05
 Sym= A
 Ene=               4
 Spin= Alpha
 Occup=    1.00000
   1    -2.2396648451263e-11
   2    -5.4821648644553e-10
   3    -1.2471554358688e-09
   4    -6.5035253535792e-10
   5    -0.0088918507856304
   6    -4.5595295438005e-11
   7    -4.1585093933201e-10
   8    -0.040106476813889
   9    4.6815320139344e-10
  10    5.331288671332e-11
  11    -4.8371731321392e-12
  12    0.00023222034767426
  13    -1.0136027991591e-12
  14    -0.0016838171640678
  15    -3.7791010099309e-11
  16    -5.3830821042743e-11
  17    1.247114263956e-10
  18    1.2627054105503e-11
  19    -0.0072284916906805
  20    -5.4323781326532e-11
  21    -4.7466770271568e-10
  22     0.035509519846179
  23    -2.8656363336366e-10
  24    2.6489098541519e-10
  25    -4.1229882420591e-10
  26     0.035699500330304
  27    -2.0591321280039e-10
  28    0.0069342197468972
  29    -2.4907806952012e-11
  30    1.9861251138496e-10
  31    4.9767969242355e-10
  32    -9.4460378630703e-09
  33      0.66722754800835
  34    3.1779911426826e-09
  35    -6.7065330739272e-09
  36      0.47113809038941
  37    2.1942556109417e-09
  38    -1.0288714129073e-10
  39    1.5209372620539e-10
  40    -0.011786346967057
  41    6.0851112171797e-11
  42    -0.0046481572980132
  43      0.05359977033037
  44     0.055484545998105
  45    -0.00038703327931112
  46    -0.0011212159916695
  47    0.0019489868105288
  48    -0.053599769512337
  49    -0.055484545251733
  50    0.00038703333023062
  51    -0.0011212159999354
  52    -0.0019489867661347
  53    8.3402262352788e-05
  54     0.032172388588052
  55    0.0019785780632894
  56    -0.00056471060252087
  57    2.3844680733254e-05
  58    -2.8135246049958e-11
  59    2.2877946724341e-11
  60    4.0484823720722e-10
  61    1.2405362979298e-10
  62    0.0033128818748762
  63    1.8639344773088e-10
  64    1.2690327623353e-10
  65     0.006335688199726
  66    2.3859934235941e-10
  67    5.9055368967426e-12
  68    -1.0640468482581e-11
  69    -5.1277346812126e-05
  70    -4.4536141465746e-12
  71    -0.00019948379299226
  72    -8.3402537432147e-05
  73    -0.032172388181326
  74    -0.0019785780594531
  75    -0.00056471061712467
  76    -2.3844690289627e-05
 Sym= A
 Ene=               5
 Spin= Alpha
 Occup=    1.00000
   1    1.5229667459368e-10
   2    9.2035003084439e-10
   3    1.1159594709921e-10
   4    -3.4391683033259e-10
   5    -0.0072284915385264
   6    -1.2570029826059e-09
   7    -8.9680920833692e-10
   8     0.035509519997785
   9    -6.3208141472104e-10
  10    -4.0695531207543e-10
  11    7.8530649324762e-10
  12    -0.035699500341852
  13    3.868077614276e-10
  14    -0.0069342196748494
  15    4.5990591980847e-11
  16    1.0062556677157e-09
  17    2.2567357071434e-09
  18    -1.1671833475746e-09
  19    -0.0088918493459872
  20    -1.8613887592307e-10
  21    -6.3400124245966e-10
  22    -0.040106476330445
  23    7.9560880108348e-10
  24    -1.056237485767e-10
  25    6.228724296085e-11
  26    -0.00023222045931499
  27    1.411700386435e-11
  28    0.0016838172034033
  29    5.6883307127364e-11
  30    -1.9296894612508e-11
  31    -7.0844031808233e-10
  32    1.8413450597267e-10
  33    0.0033128809816402
  34    3.2284382059637e-10
  35    1.9237661255575e-10
  36    0.0063356874799215
  37    4.3066973474715e-10
  38    -1.1185042259508e-11
  39    1.716228683801e-11
  40    5.1277340642361e-05
  41    6.0313229769228e-12
  42    0.00019948379404373
  43    -8.3403231095203e-05
  44    -0.032172389296579
  45    0.0019785781040099
  46    -0.00056471063239278
  47    2.3844628972769e-05
  48    8.3403766404883e-05
  49     0.032172388401797
  50    -0.0019785781022243
  51    -0.0005647106592935
  52    -2.3844656201358e-05
  53    -0.053599770648813
  54     -0.05548454665086
  55    -0.00038703327872696
  56    -0.0011212159942307
  57    0.0019489867755463
  58    2.0416754894163e-10
  59    -5.672582494535e-09
  60    -7.258215449706e-09
  61    -1.6006583181648e-08
  62      0.66722754799312
  63    9.5016795724774e-09
  64    -1.1398294559632e-08
  65      0.47113809035359
  66    6.5675206174508e-09
  67    2.749051136713e-10
  68    -2.2385358306502e-10
  69     0.011786346968192
  70    -1.027504883103e-10
  71    0.0046481573006342
  72     0.053599769169578
  73     0.055484544940038
  74    0.00038703333926635
  75    -0.0011212160141575
  76    -0.0019489867920998
 Sym= A
 Ene=               6
 Spin= Alpha
 Occup=    1.00000
   1    -0.0022566784160292
   2    -0.00096460175478991
   3    0.0094056153359507
   4    -0.0020145335319406
   5    -1.9639274396732e-10
   6    -0.00010236279015348
   7     0.031589737922786
   8    9.6750029905157e-10
   9     0.018773620390965
  10     0.017929036880095
  11    -0.027414232998069
  12    -9.7246055721565e-10
  13    -0.013708747535708
  14    -1.8898047767191e-10
  15    -0.0014770725244186
  16    -0.036576607371189
  17    -0.083312780133191
  18      0.04347536035303
  19    -2.4344103715615e-10
  20    0.0027221640259518
  21     0.028159708305804
  22    -1.0930014778472e-09
  23    -0.031435847114894
  24    0.0035324996699834
  25    -0.00014906454748705
  26    -6.2846572954704e-12
  27    -2.7933605540036e-05
  28    4.5790520178783e-11
  29    -0.0018598873394224
  30    0.0016001721412405
  31      0.02712135978577
  32    -0.0083947747650859
  33    8.9856367637297e-11
  34     -0.01251828132617
  35    -0.0085815048321287
  36    1.7238755900853e-10
  37    -0.015955976786183
  38    0.00039351708728295
  39    -0.00071764822676395
  40    1.4228964414524e-12
  41    -0.00030414114706925
  42    5.4405074665909e-12
  43    -0.0091328650354931
  44     0.013327439680077
  45    -0.00013633222060156
  46    -0.00048727680664175
  47    0.00030324078115119
  48    -0.009132865032719
  49     0.013327441432152
  50    -0.00013633232832399
  51    0.00048727677593587
  52    0.0003032407797859
  53     0.027312913181505
  54     0.024348125534682
  55    -0.0017516353658071
  56    -0.00026714900727523
  57    -0.0016380713478508
  58    -0.0019697200524461
  59    -0.0037415346507588
  60     0.012894099616779
  61      0.63448623245481
  62    1.8176127526431e-08
  63     -0.20025688289208
  64      0.45036608529409
  65    1.2834376383171e-08
  66     -0.13824455531059
  67    -0.0065879780982636
  68     0.010325084268637
  69    3.210838241991e-10
  70    0.0040886114056365
  71    1.2662204038709e-10
  72     0.027312916100857
  73     0.024348128557086
  74    -0.0017516353447575
  75    0.00026714894617219
  76    -0.0016380714540086
 Sym= A
 Ene=               7
 Spin= Alpha
 Occup=    1.00000
   1    0.0014770932260765
   2     0.036576668966874
   3     0.083312805079908
   4     0.043475311331331
   5    -1.3325485025594e-10
   6     0.002722168917795
   7     0.028159697887922
   8    -6.0073734068653e-10
   9    -0.031435837139297
  10    -0.0035324967885158
  11    0.00014905901162312
  12    3.5142980072414e-12
  13    2.7931092989395e-05
  14    -2.5199770750744e-11
  15    0.0022566888195473
  16    0.00096460587311922
  17    -0.0094056076316175
  18    -0.0020145061919892
  19    -1.0813159727523e-10
  20    -0.00010248880064801
  21     0.031589756948189
  22    5.3190396090507e-10
  23     0.018773589459492
  24    -0.017929045946507
  25     0.027414227769011
  26    5.3465283681371e-10
  27     0.013708744398152
  28    1.0385952474296e-10
  29    0.0019691538031981
  30    0.0037418541273973
  31    -0.012893711310621
  32      0.63448630926081
  33    9.9928439974875e-09
  34     -0.20025663441452
  35      0.45036613409168
  36    7.0560660232338e-09
  37     -0.13824438339357
  38    0.0065879733332301
  39    -0.010325088280587
  40    -1.7652216117103e-10
  41     -0.00408861222753
  42    -6.9614427400328e-11
  43    -0.027312849519174
  44    -0.024348096990849
  45    -0.0017516374882277
  46    -0.00026714274534111
  47    -0.0016380725981115
  48    -0.027312851124487
  49    -0.024348098652784
  50    -0.0017516374766374
  51    0.00026714271175355
  52    -0.0016380726564842
  53    0.0091329171464641
  54    -0.013327420156874
  55    -0.00013633175689433
  56    -0.00048728195824079
  57    0.00030323782482627
  58    0.0018598717513959
  59    -0.0016001641879915
  60    -0.027121355319331
  61    -0.0083947367429809
  62    4.8828944414738e-11
  63    -0.012518255648285
  64    -0.0085814771638241
  65    9.4337169844934e-11
  66     -0.01595596109206
  67    -0.00039351496721128
  68    0.00071764937562445
  69    -7.8337995708719e-13
  70    0.00030414143650826
  71    -2.9932477161815e-12
  72    0.0091329171439901
  73      -0.0133274211206
  74    -0.0001363318161542
  75    0.0004872819413321
  76    0.00030323782411177
 Sym= A
 Ene=               8
 Spin= Alpha
 Occup=    1.00000
   1    -0.0032600804477584
   2        0.137678225919
   3    -0.018305174886533
   4     -0.09005769158813
   5    4.6306058197322e-13
   6     -0.27724036578516
   7    -0.025770270458916
   8    -8.4620225185441e-13
   9    -0.044932670260615
  10     0.050000809828712
  11     0.028510859153916
  12    9.6402190955065e-13
  13    0.0055328655674181
  14    1.7553610129048e-13
  15    0.00022018390729271
  16    -0.020213821739859
  17     0.008419238806068
  18     0.020488311293803
  19    2.5089942195975e-13
  20    -0.0069427893134463
  21    0.0028847622954646
  22    1.0767321292982e-12
  23    -0.0065738290817582
  24    -0.0020055605344515
  25     0.010439327941241
  26    2.9169574606016e-15
  27     0.002550105116619
  28    -5.9940887657867e-14
  29    0.00032660174909401
  30    0.0043976546211792
  31     0.010115476030668
  32    -0.010218165672748
  33    -2.0231270640384e-13
  34    -0.013245954527128
  35    -0.010430614620448
  36    -2.5240343003928e-13
  37    -0.0082462586519418
  38    0.00022859289635625
  39    -0.00016868529964462
  40    6.2231393703931e-16
  41    -0.00022749198394207
  42    -4.9289163499967e-15
  43    -0.006690272964406
  44    -0.0046809530144214
  45    0.00092695076930288
  46    -2.3176517903421e-05
  47    -0.0012177373709592
  48    -0.0066902729644086
  49    -0.0046809530161717
  50    0.0009269507694095
  51    2.317651793109e-05
  52    -0.0012177373709562
  53    -0.016142065832606
  54    -0.017912459061995
  55    -0.001476574977538
  56    -0.0015492555481673
  57    -0.009667888100801
  58    -0.0076506236875016
  59      0.22665688809871
  60      0.21099984447685
  61      0.13666815213846
  62    -1.7804461597132e-11
  63       0.4385894082397
  64     0.089893301547567
  65    -1.2588583834184e-11
  66      0.28713431914654
  67     0.017007471884417
  68     0.010415315891706
  69    -3.1027477596288e-13
  70    0.0018254643208548
  71    -1.2300792019132e-13
  72    -0.016142065835852
  73    -0.017912459065105
  74    -0.0014765749775735
  75    0.0015492555482133
  76    -0.0096678881006812
 Sym= A
 Ene=               9
 Spin= Alpha
 Occup=    1.00000
   1    -0.00022017370900844
   2     0.020213828265338
   3    -0.0084192427376266
   4     0.020488237059665
   5    2.0801213633803e-14
   6    -0.0069427699487508
   7    0.0028847367250763
   8    -3.0106296966865e-13
   9    -0.0065738134351948
  10    0.0020055631688523
  11    -0.010439331810822
  12    3.5031937246887e-13
  13    -0.0025501105252227
  14    8.4247427550538e-14
  15    0.0032600893376276
  16      -0.1376782124901
  17     0.018305173662142
  18    -0.090057610368703
  19    2.736683127116e-13
  20     -0.27724040598491
  21    -0.025770238637019
  22    3.9789219850263e-13
  23    -0.044932692114804
  24    -0.050000809356749
  25    -0.028510861682491
  26    -7.0799871567701e-14
  27    -0.0055328712541717
  28    -1.9755912070688e-14
  29    0.0076505775952712
  30     -0.22665686760763
  31     -0.21099981433786
  32       0.1366681367145
  33    -1.2437717901096e-12
  34      0.43858943115558
  35     0.089893285071771
  36    -9.2809241299713e-13
  37      0.28713433526927
  38    -0.017007471572368
  39    -0.010415316771226
  40    1.821227309132e-14
  41    -0.0018254646664366
  42    5.951838575095e-15
  43     0.016142115470347
  44     0.017912479042299
  45    -0.0014765747837596
  46    -0.0015492511289765
  47    -0.0096678869213022
  48     0.016142115470801
  49     0.017912479041969
  50    -0.0014765747837321
  51    0.0015492511289826
  52    -0.0096678869212843
  53    0.0066903109224812
  54    0.0046809705697685
  55    0.00092694998068652
  56    -2.3179688196208e-05
  57    -0.0012177385973524
  58    -0.00032660533595804
  59    -0.004397656660591
  60    -0.010115474567123
  61    -0.010218107734971
  62    -6.6705708500964e-12
  63    -0.013245963590618
  64    -0.010430569177718
  65    -4.7145382981767e-12
  66    -0.0082462653025362
  67    -0.00022859249587489
  68     0.000168685506355
  69    -1.1877952364934e-13
  70    0.00022749202428665
  71    -4.6054171447422e-14
  72    0.0066903109215313
  73    0.0046809705688557
  74    0.00092694998069131
  75    2.3179688222747e-05
  76    -0.001217738597317
 Sym= A
 Ene=              10
 Spin= Alpha
 Occup=    1.00000
   1    -0.0067899426831427
   2    -0.068626938193978
   3    -0.028568391447837
   4     0.030197147328539
   5    -9.5100928154879e-11
   6     0.094361283601246
   7    0.0027659403174068
   8    4.6833776557998e-10
   9    0.0088215134672026
  10    -0.0060248194847078
  11    -0.0028415569907129
  12    -4.7075248641922e-10
  13    -0.00099552584456249
  14    -9.1454136588474e-11
  15    -0.00040559583703735
  16    -0.0011636517336561
  17    0.00085043254253021
  18    -0.0010287829767422
  19    -1.1735225372512e-10
  20    0.0082622793007392
  21    -0.010003783458528
  22    -5.2890792851035e-10
  23    0.0045596761138804
  24    0.00070767089612977
  25    -0.0043850513011395
  26    -3.057290141247e-12
  27    -0.0010583598790753
  28    2.2188417066351e-11
  29    -0.00045697428822384
  30    -0.0019551715716894
  31    -0.0023477844234669
  32    0.0035036729094109
  33    4.364347251444e-11
  34    0.0016547821235494
  35    0.0031817940961804
  36    8.3521545032857e-11
  37    0.00048433469772882
  38    2.1958623432051e-05
  39    0.00016754619195274
  40    6.7858110322564e-13
  41    0.00016641465435634
  42    2.6308992649507e-12
  43    -0.001489379659143
  44    0.0063854535601657
  45    0.00022260062258644
  46    -2.2171942929168e-05
  47    0.0003918931409072
  48    -0.0014893796571049
  49    0.0063854544085688
  50    0.00022260057041147
  51    2.2171928039142e-05
  52    0.00039189314027317
  53    -0.001182475440794
  54     0.014390011370424
  55     0.001290793181679
  56    -0.00012583829260057
  57     0.004021672390766
  58    -0.0016440613848928
  59      0.43839431525381
  60      0.52421460600741
  61    -0.096579166665286
  62    8.7986340955128e-09
  63     -0.30585394969671
  64    -0.065804506215189
  65    6.2128177192933e-09
  66     -0.21178258988075
  67    -0.0072167826687675
  68    -0.0043347161241096
  69    1.5542826986551e-10
  70    -0.00064925399907057
  71    6.1295226782423e-11
  72    -0.0011824740274996
  73     0.014390012833613
  74    0.0012907931918729
  75    0.00012583826301941
  76    0.0040216723393759
 Sym= A
 Ene=              11
 Spin= Alpha
 Occup=    1.00000