[Molden Format]
made by pyscf v[2.0.1]
[Atoms] (AU)
C   1   6     0.00000000000000     0.00000000000000     0.00000000000000
C   2   6     2.85207482267819     0.00000000000000     0.00000000000000
F   3   9     3.65415199667903     0.00000000000000     2.45977207315200
H   4   1     3.58561868306314    -1.66499644088808    -0.96128614334650
H   5   1     3.58561868306314     1.66499644088808    -0.96128614334650
H   6   1    -0.73354386038494    -1.89336409366168    -0.33385117401718
F   7   9    -0.80207717400084     0.84129159700793     2.31142966595619
H   8   1    -0.73354386038494     1.23580564461298    -1.47277581671572
[GTO]
1 0
 s    8 1.00
                  6665  0.00069158396281299
                  1000  0.0053257961529341
                   228   0.027060721042034
                 64.71    0.10165684614077
                 21.06     0.2745748236174
                 7.495    0.44829431892377
                 2.797    0.28490261071525
                0.5215   0.015194859206082
 s    8 1.00
                  6665  -0.00029326965268655
                  1000  -0.0023180354739745
                   228  -0.011499786038565
                 64.71  -0.046826727009787
                 21.06   -0.12846616875047
                 7.495   -0.30126627246289
                 2.797   -0.25563070233011
                0.5215      1.093793361012
 s    1 1.00
                0.1596                   1
 p    3 1.00
                 9.439   0.056979251590039
                 2.002    0.31320721150073
                0.5456    0.76037674173753
 p    1 1.00
                0.1517                   1
 d    1 1.00
                  0.55                   1

2 0
 s    8 1.00
                  6665  0.00069158396281299
                  1000  0.0053257961529341
                   228   0.027060721042034
                 64.71    0.10165684614077
                 21.06     0.2745748236174
                 7.495    0.44829431892377
                 2.797    0.28490261071525
                0.5215   0.015194859206082
 s    8 1.00
                  6665  -0.00029326965268655
                  1000  -0.0023180354739745
                   228  -0.011499786038565
                 64.71  -0.046826727009787
                 21.06   -0.12846616875047
                 7.495   -0.30126627246289
                 2.797   -0.25563070233011
                0.5215      1.093793361012
 s    1 1.00
                0.1596                   1
 p    3 1.00
                 9.439   0.056979251590039
                 2.002    0.31320721150073
                0.5456    0.76037674173753
 p    1 1.00
                0.1517                   1
 d    1 1.00
                  0.55                   1

3 0
 s    8 1.00
                 14710  0.00072067370873197
                  2207  0.0055504869689163
                 502.8   0.028254207662589
                 142.6    0.10639582836653
                 46.47    0.28668420124307
                  16.7    0.44843796582416
                 6.356    0.26464118141135
                 1.316   0.015326060993048
 s    8 1.00
                 14710  -0.00032119389049893
                  2207  -0.0025461915683188
                 502.8  -0.012643359507821
                 142.6   -0.05195749170489
                 46.47   -0.14344713812646
                  16.7   -0.33243762329603
                 6.356   -0.21865906750347
                 1.316     1.0955904138622
 s    1 1.00
                0.3897                   1
 p    3 1.00
                 22.67   0.064834021493887
                 4.977    0.34053535983101
                 1.347    0.73464640679382
 p    1 1.00
                0.3471                   1
 d    1 1.00
                  1.64                   1

4 0
 s    3 1.00
                 13.01   0.033498726389998
                 1.962    0.23480080117413
                0.4446     0.8136829578829
 s    1 1.00
                 0.122                   1
 p    1 1.00
                 0.727                   1

5 0
 s    3 1.00
                 13.01   0.033498726389998
                 1.962    0.23480080117413
                0.4446     0.8136829578829
 s    1 1.00
                 0.122                   1
 p    1 1.00
                 0.727                   1

6 0
 s    3 1.00
                 13.01   0.033498726389998
                 1.962    0.23480080117413
                0.4446     0.8136829578829
 s    1 1.00
                 0.122                   1
 p    1 1.00
                 0.727                   1

7 0
 s    8 1.00
                 14710  0.00072067370873197
                  2207  0.0055504869689163
                 502.8   0.028254207662589
                 142.6    0.10639582836653
                 46.47    0.28668420124307
                  16.7    0.44843796582416
                 6.356    0.26464118141135
                 1.316   0.015326060993048
 s    8 1.00
                 14710  -0.00032119389049893
                  2207  -0.0025461915683188
                 502.8  -0.012643359507821
                 142.6   -0.05195749170489
                 46.47   -0.14344713812646
                  16.7   -0.33243762329603
                 6.356   -0.21865906750347
                 1.316     1.0955904138622
 s    1 1.00
                0.3897                   1
 p    3 1.00
                 22.67   0.064834021493887
                 4.977    0.34053535983101
                 1.347    0.73464640679382
 p    1 1.00
                0.3471                   1
 d    1 1.00
                  1.64                   1

8 0
 s    3 1.00
                 13.01   0.033498726389998
                 1.962    0.23480080117413
                0.4446     0.8136829578829
 s    1 1.00
                 0.122                   1
 p    1 1.00
                 0.727                   1

[5d]
[7f]
[9g]

[MO]
 Sym= A
 Ene=               0
 Spin= Alpha
 Occup=    1.00000
   1    -0.00020149424852294
   2    5.5436721306974e-05
   3    0.0028859071391564
   4    0.00039187366420374
   5    -6.2733197008792e-06
   6    -2.2605353330446e-05
   7    0.0012984399864582
   8    -1.0509676469056e-05
   9    2.4012822473818e-05
  10    4.1350339095033e-05
  11    -0.00011725274607392
  12    2.9459237726008e-06
  13    -6.064330060025e-05
  14    6.5824295252734e-07
  15       1.0021104450589
  16    0.0049179123067565
  17    -0.008444731192127
  18    0.00031192951414824
  19    -4.3309570268359e-05
  20    0.00066317485927259
  21     0.001124197745416
  22    -1.1592205987065e-05
  23    0.00038687005431261
  24    9.353881951926e-05
  25    -1.2562966447822e-05
  26    1.5273776192651e-05
  27    -0.00012981127653309
  28    -1.0386222856674e-05
  29    0.00014428732580904
  30    0.0006385451616401
  31    0.00012861318900039
  32    -0.00010436908767279
  33    -5.8523230049905e-07
  34    -0.00035498748463637
  35    0.00016631555538462
  36    -2.2411094749562e-06
  37    0.00075129877568425
  38    -0.00018079777093438
  39    -0.00011081814890943
  40    4.8044021157089e-07
  41    -2.4489028012571e-05
  42    5.3637145131603e-07
  43    0.00059936058897438
  44     0.001399376995716
  45    -2.6710486020184e-05
  46    -0.00015889097926563
  47    -0.00017420216889098
  48    0.00063921095457128
  49    0.0014181786219383
  50    -3.7875181099147e-05
  51    0.0001366645086396
  52    -0.00015422689106586
  53    -9.8379175272967e-05
  54    8.6571472213175e-05
  55    6.090526941026e-05
  56    3.6110163029469e-05
  57    -3.1515219282548e-06
  58    -2.6516695650687e-05
  59    -3.4807509861781e-05
  60    -5.1576210493254e-05
  61    7.4650597019317e-06
  62    -2.5805350591317e-06
  63    -1.0116320454752e-05
  64    0.00014309039699746
  65    2.3730896458352e-05
  66    6.1790260732096e-05
  67    -2.0797893224591e-05
  68    -1.3560890518919e-05
  69    -2.1638409044174e-06
  70    3.606258396573e-05
  71    -5.6176726676316e-06
  72    -7.64500605592e-05
  73    9.6802765853955e-05
  74    5.8833614481877e-05
  75    -4.2659567280289e-05
  76    3.1389413442987e-05
 Sym= A
 Ene=               1
 Spin= Alpha
 Occup=    1.00000
   1       1.0021103372341
   2    0.0049199507036125
   3    -0.0084435504575706
   4    -0.00031341539600788
   5    0.00026741990822779
   6    0.00060679835662734
   7    -0.0011247425372699
   8    0.00014314063423687
   9    0.00035895844775266
  10    9.8760544066097e-05
  11    1.5412712752808e-05
  12    -1.4353452704306e-06
  13    -0.00012688177878444
  14    -5.4236017774637e-06
  15    -0.00020153628821442
  16    5.5281830071057e-05
  17     0.002885716651236
  18    -0.00039147278024535
  19    -1.1343853420697e-06
  20    -2.3548143951745e-05
  21    -0.0012982330032449
  22    1.8371700457715e-05
  23    1.8980635046593e-05
  24    4.1861940441115e-05
  25    0.00011001527976272
  26    1.2304196482661e-06
  27    -6.0308214534655e-05
  28    4.0746012642001e-05
  29    -2.6514156507759e-05
  30    -3.478998405656e-05
  31    -5.1529350529619e-05
  32    -7.4920483478254e-06
  33    -1.0438869861588e-06
  34    -1.0460802992966e-05
  35    -0.00014316684222932
  36    -1.218925912418e-06
  37    6.6137645826938e-05
  38    -2.2003463352094e-05
  39    1.4656522625492e-05
  40    1.6595998272267e-06
  41    3.5361219880457e-05
  42    -6.4343506540165e-07
  43    -7.6859744008563e-05
  44    9.6672096194877e-05
  45    -5.8799177008611e-05
  46    5.0819859824824e-05
  47    1.4888496501764e-05
  48    -9.7763363855468e-05
  49    8.6846817627066e-05
  50    -6.0917710866694e-05
  51    -3.5045194370957e-05
  52    9.4061540412579e-06
  53    0.00064099387284039
  54    0.0014186134442949
  55    3.7905862991827e-05
  56    -0.00018098112840555
  57    -9.8201983445645e-05
  58    0.00014426641438277
  59    0.00063847337859189
  60    0.00012851956879945
  61    0.0001043217956674
  62    -0.00012079438494738
  63    -0.00033362412836355
  64    -0.00016625104724957
  65    0.00025910609138316
  66    0.00070540704513648
  67    -0.00014629457016993
  68    0.00010396293970022
  69    -0.00010887361880381
  70    -4.5956120064389e-06
  71    3.8412207302033e-05
  72    0.00060171975130665
  73    0.0013999818513057
  74    2.6771587146383e-05
  75    8.9553651334377e-05
  76    -0.00021789960082596
 Sym= A
 Ene=               2
 Spin= Alpha
 Occup=    1.00000
   1    2.3356079028125e-05
   2    1.3300819897059e-05
   3    -0.0010431231756363
   4    -0.00010397021625305
   5    1.129535298437e-05
   6    -6.8516447940843e-06
   7    -0.00046012106515858
   8    -9.6752079376177e-05
   9    -0.00035385532159839
  10    6.7880926623349e-05
  11    -2.6869759241947e-05
  12    1.1480336971213e-05
  13    1.2449263976872e-05
  14    -1.2991711863825e-05
  15    -0.00017699728822412
  16    0.00021722164026921
  17    0.0030139167771262
  18    0.00033650067579018
  19    -4.1641271113574e-07
  20    0.00085601183227314
  21    -3.8595054360681e-05
  22    3.5301715247779e-05
  23    0.0014002648916701
  24    0.0001386009937136
  25    8.3876004807806e-05
  26    -2.4375190057122e-06
  27    2.1593517091328e-05
  28    -1.0405614371122e-05
  29       1.0009605228257
  30    0.00086863444124255
  31    -0.005124625561518
  32    -0.00056818225574276
  33    5.9302482776547e-06
  34    -0.0020073641204073
  35    0.00025974261477705
  36    1.424644947869e-05
  37    0.00067683241075083
  38    -0.00014426359708803
  39    -8.5028622086456e-05
  40    -1.4077344228461e-06
  41    -5.7456507173588e-06
  42    -1.5942348970517e-06
  43    -0.00026743535604281
  44    -0.00011754080269403
  45    -4.5565253129106e-06
  46    -7.1281011287845e-06
  47    -0.00015578738594846
  48    -0.00027171966989138
  49    -0.00016382067251045
  50    -1.7270846479119e-06
  51     5.93277767081e-06
  52    -0.00015624926114241
  53    9.2328946601881e-05
  54    -0.00010296165558236
  55    -9.9612287550031e-07
  56    1.4971881628338e-05
  57    3.2436159946647e-05
  58    -3.6659103149415e-05
  59    -7.8068469249355e-05
  60    0.00020608365729252
  61    -2.4949216822498e-05
  62    2.2779434191167e-05
  63    2.1835555002423e-05
  64    1.1964065592212e-05
  65    -4.7752690950705e-05
  66    -3.979047182701e-05
  67    3.3701401882922e-06
  68    3.1953417836098e-06
  69    -6.4711923545417e-06
  70    -1.1561224027871e-05
  71    2.1250749745927e-06
  72    5.0433368960493e-05
  73    9.0893512965852e-05
  74    4.5265212896541e-05
  75    2.1317064434993e-05
  76    4.7377771982082e-05
 Sym= A
 Ene=               3
 Spin= Alpha
 Occup=    1.00000
   1    -0.00017728269968682
   2    0.0002170683464332
   3    0.0030140106422929
   4    -0.00033694909834793
   5    0.00029167201545145
   6    0.00080057498017483
   7    3.8136366485878e-05
   8    0.00044591333367407
   9    0.0013269184085775
  10    0.00011021711411549
  11    -7.5131104339528e-05
  12    8.6268530708081e-05
  13    5.2309872200685e-06
  14    -3.8576168594174e-05
  15    2.328030073835e-05
  16     1.30882934876e-05
  17    -0.0010429405214002
  18    0.00010415411973036
  19    -1.341598365043e-05
  20    -2.7982121125727e-06
  21    0.0004598528941163
  22    -3.0316419104063e-05
  23    -0.00036544781862734
  24    6.1117688600977e-05
  25    2.9863681570806e-05
  26    3.3015585853379e-05
  27    8.5319947996276e-06
  28    -2.9394018057907e-06
  29    -3.6646708996827e-05
  30    -7.8028162611249e-05
  31    0.00020607318691763
  32    2.4937933393462e-05
  33    -1.4024406527749e-05
  34    2.8173910932724e-05
  35    -1.2013077805004e-05
  36    3.1312247104738e-05
  37    -5.3763951976953e-05
  38    3.4796885508941e-07
  39    -3.7378853084447e-06
  40    3.1248050260316e-06
  41    -1.3317460410825e-05
  42    8.9854598714451e-07
  43    5.0653354156717e-05
  44    9.0991689463696e-05
  45    -4.5307987045157e-05
  46    -3.7818726115329e-06
  47    5.1833439648689e-05
  48    9.2118173560456e-05
  49    -0.0001028885737406
  50    1.0293720359787e-06
  51    -2.979900811011e-06
  52    3.5588906980425e-05
  53    -0.00026907937518765
  54    -0.00016207278151517
  55    1.8114059793915e-06
  56    -5.8871115763827e-05
  57    -0.00014487927068999
  58       1.0009604559785
  59    0.00088035519474676
  60    -0.0051105582482675
  61    0.00056447842748906
  62    -0.00067877618247454
  63     -0.00188052744376
  64    -0.00026223176563149
  65    0.00022751556702186
  66    0.00064344272772711
  67    -0.00011917436545472
  68    8.0555045144857e-05
  69    -8.1334962276736e-05
  70    8.8016818273581e-06
  71    2.7697681316648e-05
  72    -0.00026665707688446
  73    -0.00011765432481953
  74    4.6247011963365e-06
  75    -4.67931352618e-05
  76    -0.00014884795578551
 Sym= A
 Ene=               4
 Spin= Alpha
 Occup=    1.00000
   1    0.00036896118182769
   2    -0.0030858326331745
   3    -0.014343832850876
   4    -0.0066030012813202
   5    -0.0040852592418991
   6    -0.0026040631559042
   7    -0.018149269291954
   8    -0.010869771452044
   9    -0.007794428379025
  10    -8.427308235096e-05
  11    -0.00046772523173077
  12    0.0009140905095189
  13    0.00012928590483297
  14    -0.0019805943315649
  15    -0.00046621688338023
  16    0.00073671199617555
  17     0.012448627324999
  18    -0.0011884383103721
  19    -0.0058582472046292
  20    0.0014079925616302
  21    -0.013398718801101
  22      0.03097823764647
  23    -0.0018981435617363
  24    0.0026146642192926
  25    -0.004277612813446
  26     0.036431659794239
  27    -0.0015985150760988
  28    0.0078227209602059
  29    1.7470461918649e-05
  30    0.0018524702406472
  31     0.003335633139268
  32    -0.088633334323827
  33      0.66129013952467
  34     0.024765253920556
  35    -0.062034051264221
  36      0.46684764767632
  37     0.016616553520948
  38    -0.00060076031595532
  39    0.0016050563620205
  40    -0.012085819819266
  41    0.0006732918144168
  42    -0.0041042832468043
  43      0.05718016198341
  44     0.060261785555959
  45    -0.00021981257786033
  46    -0.0010654975133851
  47    0.0018571227021999
  48    -0.050805260844315
  49    -0.051707135374729
  50    0.00076333962176802
  51    -0.00093331055158892
  52    -0.001375858509177
  53    0.00054829376476106
  54    -0.0089298353139158
  55    0.0011729140806708
  56    0.00018482662933715
  57    -0.00025041529967577
  58    -0.001249773524917
  59    -0.0037534757737636
  60    0.0053613626948343
  61    -0.0058526805933262
  62    -0.0035189197812902
  63    -0.00099860649923855
  64    0.00030492443853039
  65    0.00086667434445431
  66    -0.001355800728424
  67    -0.00039207909458316
  68    0.00031321103626663
  69    1.2164215713744e-05
  70    0.00066737874710543
  71    0.00032721974086682
  72    0.00055314782225493
  73    -0.0026457937166973
  74    -0.0014871824139149
  75    0.00042615236694756
  76    -0.00025190651517458
 Sym= A
 Ene=               5
 Spin= Alpha
 Occup=    1.00000
   1    0.00068762289967834
   2     0.027418924994394
   3     0.081118111951216
   4     0.049854406231121
   5    -0.0026264263060396
   6    0.0054747754772249
   7     0.054151537755455
   8    0.0032639338227685
   9     -0.02183885039264
  10    -0.0015556108872527
  11    0.0013536028491629
  12    0.0009736569361762
  13    0.00091333254769204
  14    0.0004787992434741
  15    0.0018974292735828
  16    -0.0021877084744864
  17    -0.026020489825557
  18    -9.8796135887657e-05
  19    -0.00088716277798688
  20    -0.004281776421954
  21     0.043150153973479
  22    0.0037684100081943
  23     0.014677091676951
  24    -0.018110712153232
  25     0.028781088261289
  26    0.0050062852913986
  27     0.014014898597753
  28    0.0015049375900008
  29    0.00096896770851139
  30     0.010363735447727
  31    0.00018118789169266
  32       0.6329401004191
  33     0.090922249891675
  34     -0.19032973928828
  35      0.44614810852333
  36     0.064846202260492
  37     -0.13017678779569
  38    0.0060274347162773
  39     -0.01099257284395
  40    -0.0015934568891386
  41    -0.0034529667206832
  42    -0.00083180853406888
  43    -0.019475560622722
  44    -0.017430549160026
  45    -0.0020463557787417
  46    -5.9720653157188e-06
  47    -0.0011868563316248
  48    -0.034399628352275
  49     -0.03210195268699
  50    -0.0018794299924559
  51    -0.0001059539452589
  52    -0.0018069207751553
  53    -0.0011806321583166
  54    -0.006680676929552
  55    0.0021216729021953
  56    -0.0006014295728172
  57    0.0019982507121251
  58    0.0006956568178483
  59    0.0068867026371926
  60     0.010524662776578
  61     0.011802210523413
  62    -0.0045662400635142
  63    0.00096829083053272
  64    -9.1474230472095e-06
  65    -0.0046135817228768
  66    -0.0037377878471088
  67    0.00097056641213613
  68    -0.0014837605875347
  69    0.00049724888397329
  70    -0.0012113007064036
  71    0.00026438723461189
  72    -0.013681156455927
  73    -0.021841251441503
  74    0.0020018740149802
  75      0.00154866388398
  76    -4.391689768443e-06
 Sym= A
 Ene=               6
 Spin= Alpha
 Occup=    1.00000
   1    -0.0018583315211275
   2    0.00090619166158102
   3     0.026088797325898
   4    0.00084852789485358
   5    0.0017552377670135
   6    0.0053112259326832
   7      0.04439102863548
   8    -0.0036008656434701
   9    -0.013932037278698
  10     0.015364922343983
  11      0.02751797235471
  12     0.007286850461113
  13     -0.01571043190909
  14    0.0090550918740382
  15    -0.00065377432103881
  16    -0.026936228663521
  17    -0.081564291992631
  18     0.050351316747218
  19    -0.0045410371430349
  20    -0.0048425220830972
  21     0.055443785592416
  22     0.010922736628381
  23      0.01827886640037
  24    0.00086172667799888
  25    0.0014649269014425
  26    0.0012854459253152
  27    -0.0013414514997272
  28    -0.00016763729060462
  29    -0.00080052775993788
  30    -0.0071964255057641
  31    -0.010107794562707
  32     0.012263506768441
  33    -0.0043575216038475
  34    0.00057778560761869
  35    -1.6861648022825e-06
  36    -0.0031142780334958
  37    0.0050738518855528
  38    -0.0012202657920613
  39    -0.001330264401588
  40    0.00023509179494609
  41     0.001129071812351
  42    -0.00073619324802686
  43     0.014526045022105
  44     0.021818073358089
  45    0.0020800884974473
  46    0.0014652692950056
  47    -0.00050473816924334
  48     0.001334702431167
  49    0.0058517573431812
  50     0.002018086503868
  51    -0.0012961596103539
  52    -0.0016747906556986
  53     0.028624958181097
  54     0.027417628996222
  55    -0.0019767263100968
  56    0.00040453066292188
  57    0.0016090767833473
  58    -0.00094908836621135
  59    -0.010536415433703
  60    -0.00035183401356666
  61      0.63815350781362
  62      0.10095912999321
  63      0.16657337332059
  64       0.4497316870911
  65     0.070415351341566
  66      0.11335844570562
  67    -0.0050036378428556
  68    -0.010602365658993
  69    -0.0027311038870306
  70    0.0041132802788365
  71    -0.0033240351111081
  72     0.022758655350949
  73     0.021914345672402
  74    -0.0020530039865374
  75    0.00063964629122343
  76    0.0011544956841213
 Sym= A
 Ene=               7
 Spin= Alpha
 Occup=    1.00000
   1    0.00024230330462478
   2    -0.0010892513273142
   3    -0.010485291594076
   4    -0.0009888543711645
   5    -0.0022483515870492
   6    -0.0011748792876843
   7    -0.009807203104676
   8     0.030935475044463
   9    -0.010609921792244
  10    -0.021357174628313
  11    0.00093268870532873
  12     0.027451014705551
  13    -0.011173678556446
  14    -0.0082610307994402
  15    -0.00043859464100215
  16    0.00087609330430931
  17     0.007863640202306
  18    -0.0025827272574077
  19    -0.0035301832564871
  20    0.0033033148663028
  21    -0.013751276658182
  22    -0.0067706380940147
  23     0.012419377721305
  24    -0.00032448323687871
  25    -0.0008820680921815
  26    0.00082048466431599
  27    -0.00052710586704851
  28    0.0015019667897642
  29    0.0011798344908792
  30    0.0031767396933886
  31    -0.0060660374856235
  32    -0.0048734406236789
  33    -0.003301276591427
  34     0.002093467402658
  35     0.000245983459327
  36    0.0010455765425721
  37     0.001328124020671
  38    0.00028401472901919
  39    0.00029665175471644
  40    3.6674982049497e-05
  41    -0.00058366719275595
  42    -0.00026321169770565
  43    0.00094695430216949
  44    0.0046736815890457
  45    -0.0013341842562746
  46    0.00060817593679559
  47    6.0432024404904e-05
  48    -0.0008444117491463
  49    0.0089612266795063
  50    0.0013424392841389
  51    0.00014434163587154
  52    3.9255412961061e-05
  53     0.050338848116797
  54     0.052989271545089
  55    0.00049425301271131
  56    -0.00050887444432733
  57    0.0016487104583593
  58    -0.00012860684865986
  59    0.00090603041015968
  60    0.00096697548756428
  61    -0.038518590015858
  62      0.62373994237391
  63     -0.23453489173721
  64    -0.026694190295557
  65      0.44030725923368
  66     -0.16504786425724
  67    0.0069009127247564
  68    -0.00071838792710907
  69    -0.0094690984003059
  70    0.0035493639584006
  71    0.0041782449865996
  72    -0.052316247559967
  73    -0.057247106789577
  74    -0.00024368314660156
  75    -0.0016820187020803
  76    -0.001170099235386
 Sym= A
 Ene=               8
 Spin= Alpha
 Occup=    1.00000
   1    0.0022646630833125
   2     -0.14307819145729
   3     0.016333989911701
   4     0.092190037316699
   5    -0.097406415140914
   6     -0.26286732690572
   7     0.031946393063357
   8    -0.018110715327062
   9    -0.048633184602972
  10    -0.039799366242586
  11     0.026930711954803
  12    -0.029692011941802
  13    1.2796313487793e-05
  14     0.010346800159327
  15    -0.00087089415012374
  16    0.0093379306472588
  17    -0.011035831963228
  18    -0.027706735084858
  19    0.0022647690119733
  20    -0.0030940298068761
  21    -0.0044928087591764
  22    0.00074460456018737
  23    -0.00091721686290626
  24    0.0051234336455054
  25     0.010635842558114
  26    0.00092027375810599
  27    -0.0017967909920304
  28    0.0036515520411224
  29    -0.00015682600724068
  30    0.0021346617574512
  31      0.00550419727507
  32    -0.0048464086006532
  33    -0.00033514247051464
  34    -0.009339119631435
  35    -0.0049091275253004
  36    0.0003932838941453
  37    -0.0050948595532495
  38    -0.00012598590747439
  39    0.00030563896739257
  40    2.9813052670886e-05
  41    -0.00029446464501887
  42    0.00012912948655796
  43    -0.014740293275963
  44      -0.0149288345238
  45    -0.00090777270541316
  46    -7.1882798585668e-06
  47    0.0013646471614469
  48    0.00029906687998624
  49    -0.0050759061814539
  50    -0.0018742018122401
  51    -0.00052465258013256
  52    0.0010593746476983
  53     0.015450489201665
  54      0.02095665248079
  55     0.001458762499775
  56    -0.0047220542845333
  57    -0.0085385854518739
  58    0.0072599157079418
  59      -0.2235373741634
  60     -0.20184124690434
  61     -0.13426867026547
  62      0.14781336136946
  63      0.41278593477653
  64    -0.088360681480987
  65      0.09607924153465
  66      0.26919106429356
  67    -0.014332235068993
  68    0.0096181086146283
  69    -0.010059616778809
  70    0.0001586066118049
  71    0.0033970974965567
  72     0.013382232533686
  73       0.0196210259839
  74    0.0014909709810919
  75    -0.0017845350751126
  76    -0.009781911635806
 Sym= A
 Ene=               9
 Spin= Alpha
 Occup=    1.00000
   1    -0.00092920935124478
   2     0.010059937406586
   3    -0.010616864235436
   4     0.027035478071477
   5    -0.0025950948875246
   6    -0.003038635820418
   7    0.0042484452341136
   8    -0.00081112345017317
   9    -0.00092728259126659
  10    0.0049206195282909
  11    -0.011232874878887
  12    0.0015123202182443
  13    -0.001927626838844
  14    -0.00022079029447453
  15    0.0022082377450085
  16     -0.14235607831159
  17     0.016702405462932
  18    -0.091499988881998
  19    0.0017592255043439
  20      -0.2809785907663
  21    -0.031645552344409
  22    0.0004502900229648
  23    -0.052136892560064
  24    -0.049372687960307
  25    -0.028821441772627
  26    0.00058954302487147
  27    -0.005522990895585
  28    0.00048477159164527
  29    0.0072524795010258
  30     -0.22359466546673
  31     -0.20188206306897
  32      0.13445830823121
  33    0.0023363234912366
  34      0.43839250314752
  35     0.088426494814759
  36    0.0018092255981773
  37      0.28580840576153
  38     -0.01741839484575
  39    -0.010210878144131
  40    -0.00022398008897024
  41    -0.0016374486288047
  42    -9.8885262137196e-05
  43     0.014135389399094
  44     0.019836963928125
  45    -0.0015005591178782
  46    -0.0015926220245616
  47    -0.0097820587730166
  48     0.016309289540992
  49     0.021128403659371
  50    -0.0014773874089581
  51    0.0014296990537189
  52    -0.0096117590570253
  53    0.00050228252908506
  54    -0.0050921375952047
  55    0.0018626739209302
  56    0.00090885727911308
  57    0.00079567501595456
  58    -0.00016308642963616
  59    0.0021089932392921
  60    0.0054861251928065
  61    0.0048510867144066
  62    -0.0028863629102285
  63    -0.0088131546925664
  64    0.0049679158578199
  65    -0.0021610379073523
  66    -0.0045559750133721
  67    -3.9937295100626e-05
  68    -0.00032542125098988
  69    -0.00019185235067385
  70    -0.00025667006237757
  71    2.2353643235518e-05
  72    -0.013300216134388
  73    -0.014465664818489
  74    0.00094845163649297
  75    0.00039113336352001
  76    0.0013591188220806
 Sym= A
 Ene=              10
 Spin= Alpha
 Occup=    1.00000
   1    -0.0012382046774334
   2    -0.0035762898742888
   3    0.0042893956709703
   4    9.8491640134363e-05
   5    9.139576284221e-05
   6    -0.0071527911512096
   7    0.0039688871150064
   8    -0.0013913991044623
   9    -0.0019118375581481
  10    0.0012949651982181
  11    -0.0054896980700634
  12    0.00056345073762717
  13    -0.00097058663558141
  14    -0.00033478882851512
  15    -0.0074935418014641
  16      -0.0698783744415
  17    -0.026852081544304
  18    -0.030202506489066
  19    0.00022323944354044
  20    -0.094279122254516
  21    -0.0088362214340656
  22    0.00031302070523774
  23    -0.012239933979949
  24    -0.004948819503042
  25    -0.003888451688153
  26    0.00017109794826627
  27    -0.0013085073435163
  28    -5.1951603576712e-05
  29    -0.0018195789661228
  30      0.44069873735324
  31      0.52842013451013
  32     0.080046233820908
  33    -0.0018514564756414
  34      0.30651656582191
  35     0.055685449057424
  36    -0.0017477344234993
  37        0.210559053163
  38    -0.0074558805205655
  39    -0.003757229399763
  40    -9.6746449859244e-05
  41    -0.00058760865414648
  42    3.9773333212475e-05
  43    -0.001361132834001
  44     0.016882687112038
  45    -0.0011676696262333
  46    8.4962600515774e-05
  47    -0.003946490774959
  48    -0.00087971041508024
  49     0.016907138492846
  50    -0.0011454230365204
  51    -0.00019480370241989
  52      -0.0038421398543
  53    -0.0010088598889564
  54    -0.0024620331535218
  55    0.00017484967067691
  56    0.00028043879846923
  57    -0.00021093422079024
  58    -0.00044307919115797
  59    -0.0013721323156399
  60    0.0018042187429033
  61    -0.004403327471872
  62    -8.0433667057256e-05
  63    -0.0046844029618883
  64    -0.00042064416549484
  65    -0.00037146833182817
  66    -0.00089017475773747
  67    -0.00020578577199046
  68    0.00035699855058797
  69    -0.00018792156612327
  70    0.00015909152148713
  71    -4.5552584490959e-06
  72     -0.00167161161036
  73    -0.0030309042574121
  74    0.0006935900871576
  75    -0.00045420702160014
  76    0.00061753372918375
 Sym= A
 Ene=              11
 Spin= Alpha
 Occup=    1.00000
   1    -0.0074686241081906
   2    -0.070450616668425
   3    -0.027087337942103
   4     0.030609166008753
   5    -0.032265120907003