[Molden Format]
made by pyscf v[2.0.1]
[Atoms] (AU)
C   1   6     0.00000000000000     0.00000000000000     0.00000000000000
C   2   6     2.85207482267819     0.00000000000000     0.00000000000000
F   3   9     3.65415199667903     0.00000000000000     2.45977207315200
H   4   1     3.58561868306314    -1.66499644088808    -0.96128614334650
H   5   1     3.58561868306314     1.66499644088808    -0.96128614334650
H   6   1    -0.73354386038494    -1.66499644088808    -0.96128614334650
F   7   9    -0.80207717400084     0.00000000000000     2.45977207315200
H   8   1    -0.73354386038494     1.66499644088808    -0.96128614334650
[GTO]
1 0
 s    8 1.00
                  6665  0.00069158396281299
                  1000  0.0053257961529341
                   228   0.027060721042034
                 64.71    0.10165684614077
                 21.06     0.2745748236174
                 7.495    0.44829431892377
                 2.797    0.28490261071525
                0.5215   0.015194859206082
 s    8 1.00
                  6665  -0.00029326965268655
                  1000  -0.0023180354739745
                   228  -0.011499786038565
                 64.71  -0.046826727009787
                 21.06   -0.12846616875047
                 7.495   -0.30126627246289
                 2.797   -0.25563070233011
                0.5215      1.093793361012
 s    1 1.00
                0.1596                   1
 p    3 1.00
                 9.439   0.056979251590039
                 2.002    0.31320721150073
                0.5456    0.76037674173753
 p    1 1.00
                0.1517                   1
 d    1 1.00
                  0.55                   1

2 0
 s    8 1.00
                  6665  0.00069158396281299
                  1000  0.0053257961529341
                   228   0.027060721042034
                 64.71    0.10165684614077
                 21.06     0.2745748236174
                 7.495    0.44829431892377
                 2.797    0.28490261071525
                0.5215   0.015194859206082
 s    8 1.00
                  6665  -0.00029326965268655
                  1000  -0.0023180354739745
                   228  -0.011499786038565
                 64.71  -0.046826727009787
                 21.06   -0.12846616875047
                 7.495   -0.30126627246289
                 2.797   -0.25563070233011
                0.5215      1.093793361012
 s    1 1.00
                0.1596                   1
 p    3 1.00
                 9.439   0.056979251590039
                 2.002    0.31320721150073
                0.5456    0.76037674173753
 p    1 1.00
                0.1517                   1
 d    1 1.00
                  0.55                   1

3 0
 s    8 1.00
                 14710  0.00072067370873197
                  2207  0.0055504869689163
                 502.8   0.028254207662589
                 142.6    0.10639582836653
                 46.47    0.28668420124307
                  16.7    0.44843796582416
                 6.356    0.26464118141135
                 1.316   0.015326060993048
 s    8 1.00
                 14710  -0.00032119389049893
                  2207  -0.0025461915683188
                 502.8  -0.012643359507821
                 142.6   -0.05195749170489
                 46.47   -0.14344713812646
                  16.7   -0.33243762329603
                 6.356   -0.21865906750347
                 1.316     1.0955904138622
 s    1 1.00
                0.3897                   1
 p    3 1.00
                 22.67   0.064834021493887
                 4.977    0.34053535983101
                 1.347    0.73464640679382
 p    1 1.00
                0.3471                   1
 d    1 1.00
                  1.64                   1

4 0
 s    3 1.00
                 13.01   0.033498726389998
                 1.962    0.23480080117413
                0.4446     0.8136829578829
 s    1 1.00
                 0.122                   1
 p    1 1.00
                 0.727                   1

5 0
 s    3 1.00
                 13.01   0.033498726389998
                 1.962    0.23480080117413
                0.4446     0.8136829578829
 s    1 1.00
                 0.122                   1
 p    1 1.00
                 0.727                   1

6 0
 s    3 1.00
                 13.01   0.033498726389998
                 1.962    0.23480080117413
                0.4446     0.8136829578829
 s    1 1.00
                 0.122                   1
 p    1 1.00
                 0.727                   1

7 0
 s    8 1.00
                 14710  0.00072067370873197
                  2207  0.0055504869689163
                 502.8   0.028254207662589
                 142.6    0.10639582836653
                 46.47    0.28668420124307
                  16.7    0.44843796582416
                 6.356    0.26464118141135
                 1.316   0.015326060993048
 s    8 1.00
                 14710  -0.00032119389049893
                  2207  -0.0025461915683188
                 502.8  -0.012643359507821
                 142.6   -0.05195749170489
                 46.47   -0.14344713812646
                  16.7   -0.33243762329603
                 6.356   -0.21865906750347
                 1.316     1.0955904138622
 s    1 1.00
                0.3897                   1
 p    3 1.00
                 22.67   0.064834021493887
                 4.977    0.34053535983101
                 1.347    0.73464640679382
 p    1 1.00
                0.3471                   1
 d    1 1.00
                  1.64                   1

8 0
 s    3 1.00
                 13.01   0.033498726389998
                 1.962    0.23480080117413
                0.4446     0.8136829578829
 s    1 1.00
                 0.122                   1
 p    1 1.00
                 0.727                   1

[5d]
[7f]
[9g]

[MO]
 Sym= A
 Ene=               0
 Spin= Alpha
 Occup=    1.00000
   1    -0.00020600842630775
   2    4.6828571004633e-05
   3    0.0029127862332701
   4    0.00039162909120872
   5    -7.5916970484506e-12
   6    -2.53027466202e-05
   7    0.0012751974720462
   8    -2.6545095148914e-12
   9    -2.6844558398162e-06
  10    4.7176306681628e-05
  11    -0.00011564975404729
  12    5.3052753926133e-13
  13    -6.5367184660296e-05
  14    7.0245201858369e-13
  15       1.0021119686322
  16     0.004923888382702
  17    -0.0084405113892182
  18    0.00029977943250135
  19    9.0640235795638e-12
  20    0.00065765563034335
  21    0.0011091812274682
  22    3.1387427828352e-12
  23    0.00039891482999215
  24    9.2433483120023e-05
  25    -1.4436243104717e-05
  26    -6.5830360001885e-13
  27    -0.00012861449416974
  28    6.6793151934111e-13
  29    0.00014462843177313
  30    0.00063891664075752
  31    0.0001266240551331
  32    -0.00010536484108134
  33    -4.5747156588788e-12
  34    -0.00035434929552002
  35    0.00017000302786484
  36    -3.7374187338557e-12
  37    0.00074771722293605
  38    -0.00017972410663779
  39    -0.00011081085756253
  40    -5.8012824694473e-14
  41    -2.4555360932821e-05
  42    -2.813880637377e-15
  43    0.00061893847172318
  44    0.0014178147131341
  45    -3.0970389468289e-05
  46    -0.00014667773514603
  47    -0.00016455866669866
  48    0.00061893848659028
  49    0.0014178147204434
  50    -3.0970389993305e-05
  51    0.00014667773471853
  52    -0.0001645586662111
  53    -9.2478284451668e-05
  54    6.714417487317e-05
  55    5.6792128426219e-05
  56    4.1930174591325e-05
  57    1.2595609162743e-05
  58    -2.7922598091244e-05
  59    -3.7322052686173e-05
  60    -4.6110500731391e-05
  61    6.895534819826e-06
  62    3.568783331999e-12
  63    -1.0350772748422e-05
  64    0.0001462605624447
  65    2.9187821197715e-12
  66    6.5982808053263e-05
  67    -2.3051514327004e-05
  68    -1.4854681353954e-05
  69    5.4702176480287e-14
  70    3.5408739910088e-05
  71    -3.9305823627952e-15
  72    -9.24782971916e-05
  73    6.7144168379251e-05
  74    5.6792127998094e-05
  75    -4.1930174247756e-05
  76    1.2595608760193e-05
 Sym= A
 Ene=               1
 Spin= Alpha
 Occup=    1.00000
   1       1.0021119686381
   2    0.0049238882600664
   3    -0.0084405114340356
   4    -0.00029977899747608
   5    4.5050973983925e-12
   6    0.00065765556684597
   7    -0.0011091811288065
   8    1.6084962647024e-12
   9    0.00039891488762193
  10    9.2433419026728e-05
  11    1.443624967434e-05
  12    -2.5548116363002e-13
  13    -0.00012861445124412
  14    -3.4206171708676e-13
  15    -0.00020600862581309
  16    4.6829139379776e-05
  17    0.0029127865675255
  18    -0.00039162930073491
  19    -3.5746077064125e-12
  20    -2.5302724571999e-05
  21    -0.0012751976159708
  22    -1.1537616591203e-12
  23    -2.6845221667253e-06
  24    4.7176339874507e-05
  25    0.00011564973142546
  26    3.6474201222275e-13
  27    -6.5367186298287e-05
  28    -3.1463303949516e-13
  29    -2.7923236694359e-05
  30    -3.7321956453895e-05
  31    -4.6110419135126e-05
  32    -6.896356368991e-06
  33    3.7536744487265e-12
  34    -1.0350767061149e-05
  35    -0.00014626111343241
  36    2.8424064591421e-12
  37    6.598282433836e-05
  38    -2.3051507907435e-05
  39    1.4854705509898e-05
  40    -1.2414545143861e-14
  41    3.5408744807452e-05
  42    -1.2386891851565e-14
  43    -9.2478059439154e-05
  44    6.7144190769924e-05
  45    -5.6792142454859e-05
  46    4.1930197359965e-05
  47    1.2595628459883e-05
  48    -9.2478065777452e-05
  49    6.7144187332358e-05
  50    -5.6792142246054e-05
  51    -4.1930197205196e-05
  52    1.2595628260746e-05
  53    0.00061893829380948
  54    0.0014178146574685
  55    3.0970391210386e-05
  56    -0.0001466777508144
  57    -0.00016455867979963
  58    0.00014463381143275
  59    0.00063891619431526
  60    0.00012662352329785
  61    0.0001053645198778
  62    -1.0203277208057e-12
  63    -0.00035434914862256
  64    -0.00017000327687893
  65    -9.6244441682765e-13
  66    0.00074771732156962
  67    -0.00017972412163535
  68    0.00011081086591448
  69    -5.1999209741066e-14
  70    -2.4555359412556e-05
  71    1.129372405016e-14
  72    0.0006189383009906
  73    0.0014178146608687
  74    3.0970391461103e-05
  75    0.00014667775059849
  76    -0.00016455867956298
 Sym= A
 Ene=               2
 Spin= Alpha
 Occup=    1.00000
   1    -0.00018153918473764
   2    0.00020996598702698
   3    0.0031018647362661
   4    -0.00033510407948489
   5    -2.4156685372153e-10
   6    0.00085799298641117
   7    7.4543827518542e-05
   8    1.1889980491551e-09
   9    0.0014089698252941
  10    0.00013452736782728
  11    -7.6146802491448e-05
  12    1.4409993057441e-09
  13    1.9704962319188e-05
  14    -3.1735652540742e-10
  15    3.0379627874945e-05
  16    2.3626955269317e-05
  17    -0.0011444275150788
  18    9.6380924507962e-05
  19    -1.3281864968331e-10
  20    -4.5004402949596e-06
  21    0.00051790911455062
  22    -1.6971717601702e-10
  23    -0.00042396098620247
  24    6.7176024172929e-05
  25    3.2568180363806e-05
  26    3.9191112240276e-11
  27    2.1330021625538e-05
  28    6.7706419838212e-11
  29    -5.2588329720521e-05
  30    -0.0001093916521577
  31    0.00027723971010152
  32    3.4914089003565e-05
  33    -2.0170643816197e-10
  34    3.0910750509141e-05
  35    -5.2428489482107e-05
  36    1.7075561105236e-11
  37    -6.3772872999894e-05
  38    -1.4887147689438e-06
  39    -2.1301539493749e-06
  40    4.1016234939245e-12
  41    -1.1191804250056e-05
  42    -2.3209563596643e-11
  43    8.3579334995848e-05
  44    -1.6353721100979e-05
  45    -3.2163330630516e-05
  46    -3.1620316858588e-06
  47    5.4184142836416e-05
  48    8.3579276569986e-05
  49    -1.6353732925435e-05
  50    -3.2163196946728e-05
  51    3.162066548956e-06
  52    5.4184126179033e-05
  53    -0.00027823203479115
  54    -0.00013957210847864
  55    1.7710512911489e-06
  56    -8.1443287333681e-06
  57    -0.00015766604330516
  58       1.0009612760212
  59    0.00086892499674802
  60    -0.0051309576444556
  61    0.00055622423370471
  62    2.6132313509417e-08
  63    -0.0020123606124385
  64    -0.00026711164080005
  65    1.845874460508e-08
  66    0.00067702664488163
  67    -0.00014432197609773
  68    8.5790935087388e-05
  69    -4.780547955253e-10
  70    -4.8358347036978e-06
  71    1.6280286860044e-10
  72    -0.00027823633635812
  73    -0.00013957653614984
  74    1.7710122260433e-06
  75    8.1442548617996e-06
  76    -0.0001576661745033
 Sym= A
 Ene=               3
 Spin= Alpha
 Occup=    1.00000
   1    3.0384360457245e-05
   2    2.3643053946416e-05
   3    -0.0011444159862169
   4    -9.6378866315782e-05
   5    -7.7716225918876e-11
   6    -4.4772788921773e-06
   7    -0.00051790318131708
   8    -9.9973690110113e-11
   9    -0.0004239538353979
  10    6.7170138013453e-05
  11    -3.2546729994279e-05
  12    2.1856064668872e-11
  13    2.1332015184767e-05
  14    -3.9044654562508e-11
  15    -0.0001815071184642
  16    0.00021020971555411
  17    0.0031019342992254
  18    0.00033522163518358
  19    -1.3695037361116e-10
  20    0.00085834428582953
  21    -7.4490825139213e-05
  22    6.9472181215555e-10
  23    0.0014090216065426
  24    0.00013454460537509
  25    7.6171112282711e-05
  26    8.3992717880672e-10
  27    1.9713199245037e-05
  28    1.8514006350472e-10
  29       1.0009612817893
  30    0.00086743582799796
  31    -0.0051327520908464
  32    -0.00055634442395392
  33    1.5235805667162e-08
  34    -0.0020135025772825
  35    0.00026702862390052
  36    1.0761569017865e-08
  37    0.00067624417850895
  38    -0.00014429323135259
  39    -8.578023260951e-05
  40    -2.7877677137933e-10
  41    -4.8345211042568e-06
  42    -9.4914475770353e-11
  43    -0.00027824094022361
  44    -0.00013964048200578
  45    -1.7672377418662e-06
  46    -8.1450603174035e-06
  47    -0.00015765233612692
  48    -0.00027824344247836
  49    -0.00013964306109101
  50    -1.7672152888093e-06
  51    8.1450170233978e-06
  52    -0.00015765241240601
  53    8.3585458707409e-05
  54    -1.6340724714331e-05
  55    3.2161686191801e-05
  56    -3.1636713797204e-06
  57    5.4183477578627e-05
  58    -5.2585547689286e-05
  59    -0.00010938482030276
  60    0.00027723185513569
  61    -3.4890426635969e-05
  62    -1.3589597476755e-10
  63    3.0931438078365e-05
  64    5.2431589382819e-05
  65    -2.9639821923773e-12
  66    -6.3767983059503e-05
  67    -1.4872927070149e-06
  68    2.1284196531111e-06
  69    2.7345713858076e-12
  70    -1.1192900357579e-05
  71    1.3418285990181e-11
  72    8.3585426545699e-05
  73    -1.6340729357088e-05
  74    3.2161608256995e-05
  75    3.1636917618635e-06
  76    5.4183467940935e-05
 Sym= A
 Ene=               4
 Spin= Alpha
 Occup=    1.00000
   1    3.2983345761725e-08
   2    1.7122317948334e-06
   3    5.3304200553664e-06
   4    3.2276378487755e-06
   5    -0.0033801525732564
   6    4.1579329645012e-07
   7    3.7971240734887e-06
   8    -0.0043475870347791
   9    -1.0223290027747e-06
  10    -8.4782066193349e-08
  11    1.5476277323392e-07
  12    0.00098172421573166
  13    6.4474637067902e-08
  14    -0.0017214086473982
  15    1.9043447987539e-07
  16    3.6994741715323e-07
  17    -1.8155581496274e-06
  18    2.6617021783787e-07
  19    -0.0060861329802911
  20    4.1714542365882e-07
  21    3.0973658536008e-06
  22     0.030401191530261
  23    1.0020783502576e-06
  24    -1.1246640316797e-06
  25    1.8949486983643e-06
  26     0.036801128442743
  27    9.0722682558353e-07
  28    0.0081074922114466
  29    4.3593680680547e-08
  30    -2.7253410697911e-06
  31    -4.008314245051e-06
  32    4.0029528439489e-05
  33      0.66746491452344
  34    -1.449013716489e-05
  35    2.8177990123771e-05
  36      0.47146121263927
  37    -9.8964393642736e-06
  38    4.372303197092e-07
  39    -6.8288483123007e-07
  40    -0.012211614327622
  41    -2.1344108126584e-07
  42    -0.0041582521115604
  43     0.054872923898548
  44     0.056519430751298
  45    -0.00049565116580057
  46    -0.00094584746266821
  47    0.0016731499940277
  48    -0.054876335536901
  49    -0.056522912384964
  50    0.0004954110612769
  51    -0.00094585572143281
  52    -0.0016732814144961
  53    0.00071588878583779
  54    0.00012507438995725
  55    0.0017067923422697
  56    0.00044516266846685
  57    0.0002116421745911
  58    6.4163988320407e-08
  59    5.2873600078576e-07
  60    6.5236239226925e-07
  61    9.6017729034691e-07
  62    -0.0054917836065241
  63    4.8544593632388e-08
  64    1.1043112852195e-07
  65    0.00019497609552631
  66    -2.9707168019635e-07
  67    8.7123641572101e-08
  68    -1.0192691809488e-07
  69    0.00011087550913284
  70    -9.4644865656843e-08
  71    0.00059077453433592
  72    -0.00071693160720554
  73    -0.00012652103479314
  74    -0.0017065353800399
  75    0.00044534754851519
  76    -0.00021149904414683
 Sym= A
 Ene=               5
 Spin= Alpha
 Occup=    1.00000
   1    1.6167742004233e-07
   2    1.333032162825e-07
   3    -1.8656155628854e-06
   4    -1.6086766656248e-07
   5    -0.0060861324811033
   6    9.2809404584011e-08
   7    -3.0099035234003e-06
   8      0.03040119175013
   9    9.4331256515667e-07
  10    -1.1220976651572e-06
  11    -1.8489256739458e-06
  12      0.03680112841061
  13    8.873607685743e-07
  14    -0.0081074921622641
  15    2.8570756299526e-08
  16    1.6721692943346e-06
  17    5.249989701613e-06
  18    -3.1733889642992e-06
  19    -0.0033801516163846
  20    3.842268838642e-07
  21    -3.7386114473452e-06
  22    -0.0043475871145788
  23    -1.0170740723913e-06
  24    -7.833296674052e-08
  25    -1.3309626641778e-07
  26    0.0009817236929604
  27    6.1044811506134e-08
  28    0.0017214085509148
  29    6.1079448941915e-08
  30    5.1315648583987e-07
  31    6.4945612850847e-07
  32    -9.2617472048417e-07
  33    -0.0054917923336879
  34    3.1193748535036e-08
  35    -1.0761311473828e-07
  36    0.00019496987284969
  37    -2.9563425410433e-07
  38    8.4546508372041e-08
  39    9.8771590735064e-08
  40    0.00011087565555264
  41    -9.2326228711542e-08
  42    -0.00059077448344648
  43    0.00071589242694578
  44    0.00012507269554049
  45    -0.0017067919840129
  46    0.00044516571468167
  47    0.00021164171188863
  48    -0.00071692530202922
  49    -0.00012652079868229
  50    0.0017065356718698
  51    0.00044534447775021
  52    -0.00021149941593131
  53     0.054872951357194
  54     0.056519518258591
  55    0.00049565294802679
  56    -0.00094584681853604
  57    0.0016731381413888
  58    2.0136452632922e-08
  59    -1.2095023809737e-06
  60    -2.1778052168553e-06
  61    -3.9608936639056e-05
  62      0.66746491465389
  63    -1.3219225389217e-05
  64    -2.7880364948134e-05
  65      0.47146121264372
  66    -9.0248125901921e-06
  67    4.0482707847804e-07
  68    6.8358204381544e-07
  69    -0.012211614336745
  70    -2.1179986363506e-07
  71    0.0041582521063589
  72    -0.054876307507573
  73     -0.05652282474762
  74    -0.00049540920569059
  75    -0.0009458564062986
  76    -0.0016732932364061
 Sym= A
 Ene=               6
 Spin= Alpha
 Occup=    1.00000
   1    -0.0020382234481889
   2    0.0028327879997752
   3     0.031627972109673
   4    0.00040585308071539
   5    -3.7879075069589e-07
   6    0.0053716831818194
   7     0.047469332114551
   8    1.8975518085526e-06
   9    -0.014209548572837
  10     0.018333886551791
  11     0.029321961776049
  12    2.2965277499662e-06
  13    -0.014119393762788
  14    -5.0599675807801e-07
  15    -0.00037448237220155
  16    -0.026551211263845
  17    -0.084324345249855
  18     0.050850319165868
  19    -2.111078898634e-07
  20    -0.0056262750318694
  21     0.060022555013838
  22    -2.713147696154e-07
  23     0.016555834380394
  24    0.0011468150445112
  25    0.0017204605775745
  26    6.1344783553865e-08
  27    -0.00092780641837075
  28    1.0738369336943e-07
  29    -0.00093437833896733
  30    -0.0080777955086372
  31     -0.01058075653193
  32     0.014450854657417
  33    -3.4136594455171e-07
  34    -0.0001397000695285
  35    0.0017005822711059
  36    1.3123713826736e-08
  37    0.0048163073718085
  38    -0.0013308716138725
  39    -0.0015515114647111
  40    6.8973585707632e-09
  41    0.0014638094290063
  42    -3.6875708961876e-08
  43    0.0083576931175483
  44     0.011880997820301
  45    0.0020931517946308
  46    0.0013997970999859
  47    -0.0011571109523566
  48    0.0083576031288474
  49      0.01188098164105
  50    0.0020933648133204
  51    -0.0013997415283786
  52    -0.0011571373719895
  53     0.026906185320726
  54     0.025234643316409
  55    -0.0020359688459069
  56    -9.3490790205827e-05
  57    0.0015222152376252
  58    -0.00082006205373007
  59    -0.012376176621101
  60    -0.0031853791035439
  61      0.64016280599205
  62    4.1653117325075e-05
  63      0.18964155262279
  64      0.45057158810594
  65    2.9421459617247e-05
  66      0.12938232644147
  67    -0.0059459952643781
  68    -0.011217186857826
  69    -7.6208092093298e-07
  70    0.0034360849832626
  71    2.5950037250532e-07
  72     0.026899337930703
  73     0.025227589543646
  74    -0.0020360306384303
  75    9.3372686434382e-05
  76    0.0015220064566722
 Sym= A
 Ene=               7
 Spin= Alpha
 Occup=    1.00000
   1    0.00037448487782151
   2     0.026551216502514
   3     0.084324340813878
   4     0.050850314255107
   5    2.1464481502045e-07
   6    0.0056262863869167
   7     0.060022552140046
   8    2.7597064271945e-07
   9    -0.016555830056219
  10    -0.0011468154014497
  11    0.0017204676472637
  12    -6.2348665658839e-08
  13    0.0009278064789295
  14    1.0917382882421e-07
  15     0.002038233611725
  16    -0.0028327100345042
  17    -0.031627943342989
  18    0.00040589393066934
  19    3.8447126833447e-07
  20    -0.0053715840040837
  21     0.047469347885981
  22    -1.9303030199594e-06
  23     0.014209560218271
  24    -0.018333883587824
  25     0.029321965064273
  26    -2.3357692994994e-06
  27     0.014119394634947
  28    -5.1467528127886e-07
  29    0.00081982711502001
  30     0.012375599551764
  31    0.0031846931182846
  32      0.64016271901144
  33    -4.2365560565252e-05
  34     -0.18964191460268
  35      0.45057152613954
  36     -2.9924634654e-05
  37     -0.12938257624867
  38     0.005946003705537
  39    -0.011217183003945
  40    7.7512786130343e-07
  41    -0.0034360843345981
  42    2.6394111660644e-07
  43    -0.026906238006114
  44    -0.025234722430389
  45    -0.0020359668501302
  46    9.349178909129e-05
  47    -0.0015222126675375
  48     -0.02689927465375
  49    -0.025227548472479
  50    -0.0020360296475498
  51    -9.3371621360422e-05
  52    -0.0015220003582595
  53    -0.0083576906232527
  54    -0.011880992415231
  55     0.002093149193091
  56    -0.0013997979961683
  57     0.001157110685295
  58    0.00093437576908548
  59    0.0080777961010846
  60     0.010580751307993
  61     0.014450883697149
  62    3.4795062058613e-07
  63    0.00013970479063298
  64    0.0017005988879376
  65    -1.2812069352489e-08
  66    -0.0048163068364668
  67    0.0013308720966985
  68    -0.001551512425682
  69    -7.0282937226465e-09
  70    -0.0014638096281986
  71    -3.7502497820838e-08
  72    -0.0083575992213571
  73    -0.011880976003783
  74     0.002093365848968
  75    0.0013997414796337
  76    0.0011571375482896
 Sym= A
 Ene=               8
 Spin= Alpha
 Occup=    1.00000
   1    -0.00081984051229462
   2    0.0090741978088241
   3    -0.012716453781708
   4      0.02807137539785
   5    -9.1297855534567e-12
   6    -0.0032118612097915
   7     0.002982988601306
   8    9.0573182031661e-12
   9    -0.0015852893204115
  10     0.005625293397759
  11    -0.011467089746481
  12    5.2896230691959e-11
  13    -0.0013642960851013
  14    -2.8487629272963e-11
  15    0.0021251252768927
  16     -0.14267595989116
  17     0.018216791995459
  18    -0.091967240837954
  19    -9.686309435317e-11
  20     -0.28130074617441
  21    -0.033130685682027
  22    2.5503298219206e-10
  23    -0.052621276291948
  24    -0.049298225640817
  25    -0.028777029031483
  26    3.3513277457133e-10
  27    -0.0054349129551731
  28    7.2463750699818e-11
  29    0.0072402673848929
  30     -0.22317907152668
  31     -0.20107248638948
  32      0.13398675805501
  33    6.018304024225e-09
  34      0.43840832207286
  35      0.08824242059536
  36     4.25824350115e-09
  37       0.2857964814257
  38    -0.017457444539849
  39    -0.010197810789195
  40    -1.095041425412e-10
  41    -0.0016096385033997
  42    -3.8144780980751e-11
  43     0.014918918371298
  44     0.020598165961747
  45    -0.0014795918626667
  46    -0.0015096210671332
  47    -0.0097028296744924
  48     0.014918917320172
  49     0.020598164914114
  50    -0.0014795918472706
  51     0.001509621053028
  52    -0.0097028297071779
  53    -0.0074079429998701
  54    -0.011032516265151
  55     0.001633558800124
  56    0.0001984447932606
  57     0.001491397682751
  58    -0.00029791863982764
  59    0.0021097072957846
  60    0.0067286988431571
  61    0.0052560264269567
  62    7.7265214286832e-10
  63    -0.010219042151599
  64    0.0063921964222851
  65    5.8093597981671e-10
  66    -0.0055107356734081
  67    -0.00013811257647328
  68    -0.00026461963925371
  69    -1.4500937581394e-11
  70    -0.00031114327864024
  71    1.0536659466213e-11
  72    -0.0074079431012552
  73    -0.011032516383693
  74    0.0016335587697866
  75    -0.00019844478890501
  76    0.0014913976762811
 Sym= A
 Ene=               9
 Spin= Alpha
 Occup=    1.00000
   1    0.0021251250735055
   2     -0.14267596717403
   3     0.018216786835934
   4     0.091967249232159
   5    5.0731751589521e-11
   6      -0.2813007387378
   7     0.033130686350764
   8    1.735093676166e-10
   9    -0.052621272665574
  10    -0.049298226954247
  11     0.028777027325819
  12    1.8123240911072e-10
  13    -0.0054349112557549
  14    -4.2986106018055e-11
  15    -0.00081984086942019
  16     0.009074206692149
  17    -0.012716447523432
  18    -0.028071379943465
  19    5.9064781323546e-11
  20    -0.0032118485264792
  21    -0.0029829928746402
  22    7.8363136565584e-11
  23    -0.001585288070405
  24    0.0056252949544029
  25     0.011467090718646
  26    8.2770332156026e-11
  27    -0.0013642955740197
  28    2.5517060243406e-11
  29    -0.00029792288079833
  30    0.0021097129357259
  31    0.0067287028702064
  32    -0.0052560266407511
  33    1.4633564106093e-09
  34    -0.010219061726127
  35    -0.0063921952716529
  36    1.0476869443628e-09
  37    -0.0055107489465819
  38    -0.00013811176731073
  39    0.00026462011218213
  40    -2.8053972703548e-11
  41    -0.00031114331614272
  42    -1.260396587567e-11
  43    -0.0074079456637543
  44    -0.011032518892084
  45    -0.0016335589701069
  46    0.00019844461274475
  47    0.0014913981222493
  48    -0.0074079457956719
  49    -0.011032519106104
  50    -0.0016335589564345
  51    -0.00019844461778477
  52    0.0014913981175464
  53     0.014918907167081
  54     0.020598161697407
  55     0.001479591803448
  56    -0.0015096219657077
  57    -0.0097028300377681
  58    0.0072401732722756
  59     -0.22317907352712
  60     -0.20107248934684
  61     -0.13398679991861
  62    3.312446377782e-09
  63      0.43840830730805
  64    -0.088242450898691
  65    2.3426410974765e-09
  66      0.28579647072657
  67    -0.017457444201737
  68     0.010197811395347
  69    -6.1898455110658e-11
  70    -0.0016096386802632
  71    2.2403649327928e-11
  72     0.014918906736121
  73     0.020598161172797
  74     0.001479591796378
  75     0.001509621953066
  76    -0.0097028300505495
 Sym= A
 Ene=              10
 Spin= Alpha
 Occup=    1.00000
   1    -0.0076125410344486
   2    -0.069911403778609
   3     -0.02473945157816
   4     0.030364522522247
   5    -2.6702375409493e-08
   6    -0.094183219655542
   7     0.010674375002622
   8    1.3697400098178e-07
   9    -0.012255215983803
  10    -0.0048072371307087
  11      0.00419272978811
  12    1.6547802336171e-07
  13    -0.0013576992110721
  14    -3.6494339211332e-08
  15    -0.0011314726581463
  16    -0.0035345855248111
  17    0.0026648646653565
  18    0.00021739850147383
  19    -1.5354909140625e-08
  20    -0.0072107543778964
  21    -0.0015260872809321
  22    -1.9627276228273e-08
  23    -0.0035615697816109
  24    0.0015329226637379
  25     0.005697706266179
  26    4.4064018692706e-09
  27    -0.00073310540429645
  28    7.6992037005649e-09
  29    -0.00061457097964436
  30    -0.0019279548440549
  31    0.0024925268969522
  32    0.0055250593623837
  33    -2.4973811917241e-08
  34    -0.0051141944040505
  35    0.00040878748343179
  36    6.8831971528643e-10
  37    -0.001177935466778
  38    -0.00032758796627965
  39    -0.00043447227469112
  40    5.0635469642147e-10
  41    0.00021755085970642
  42    -2.6550739169053e-09
  43    -0.0012022275631463
  44    -0.0038664842842795
  45    -0.00054283634252005
  46    0.00044030311894728
  47    0.00023294840260424
  48    -0.0012022342690384
  49    -0.0038664855641302
  50    -0.00054282098335502
  51    -0.00044029910829517
  52    0.00023294649373899
  53    -0.0011077794843813
  54     0.017286677617769
  55    0.0011218222021962
  56    0.00014101679533592
  57    -0.0038958017406668
  58    -0.0018104856342323
  59      0.44093827040271
  60      0.52875529501234
  61    -0.075518726816776
  62    3.0018605460983e-06
  63      0.30730955884624
  64    -0.052720631443433
  65    2.1203091935938e-06
  66      0.21096677221558
  67    -0.0075004102122124
  68    0.0036387586189492
  69    -5.4930890561095e-08
  70    -0.00058057010736399
  71    1.870339897417e-08
  72    -0.0011082720747242
  73     0.017286169642435
  74    0.0011218177866137
  75    -0.00014102533844012
  76    -0.0038958167555858
 Sym= A
 Ene=              11
 Spin= Alpha
 Occup=    1.00000
   1    -0.0011314721529496