[Molden Format]
made by pyscf v[2.0.1]
[Atoms] (AU)
C   1   6     0.00000000000000     0.00000000000000     0.00000000000000
C   2   6     2.85207482267819     0.00000000000000     0.00000000000000
F   3   9     3.65415199667903     0.00000000000000     2.45977207315200
H   4   1     3.58561868306314    -1.66499644088808    -0.96128614334650
H   5   1     3.58561868306314     1.66499644088808    -0.96128614334650
H   6   1    -0.73354386038494     0.65755844904870     1.80662699073290
F   7   9    -0.80207717400084     1.58111101127508    -1.88429472797734
H   8   1    -0.73354386038494    -1.89336409366168    -0.33385117401718
[GTO]
1 0
 s    8 1.00
                  6665  0.00069158396281299
                  1000  0.0053257961529341
                   228   0.027060721042034
                 64.71    0.10165684614077
                 21.06     0.2745748236174
                 7.495    0.44829431892377
                 2.797    0.28490261071525
                0.5215   0.015194859206082
 s    8 1.00
                  6665  -0.00029326965268655
                  1000  -0.0023180354739745
                   228  -0.011499786038565
                 64.71  -0.046826727009787
                 21.06   -0.12846616875047
                 7.495   -0.30126627246289
                 2.797   -0.25563070233011
                0.5215      1.093793361012
 s    1 1.00
                0.1596                   1
 p    3 1.00
                 9.439   0.056979251590039
                 2.002    0.31320721150073
                0.5456    0.76037674173753
 p    1 1.00
                0.1517                   1
 d    1 1.00
                  0.55                   1

2 0
 s    8 1.00
                  6665  0.00069158396281299
                  1000  0.0053257961529341
                   228   0.027060721042034
                 64.71    0.10165684614077
                 21.06     0.2745748236174
                 7.495    0.44829431892377
                 2.797    0.28490261071525
                0.5215   0.015194859206082
 s    8 1.00
                  6665  -0.00029326965268655
                  1000  -0.0023180354739745
                   228  -0.011499786038565
                 64.71  -0.046826727009787
                 21.06   -0.12846616875047
                 7.495   -0.30126627246289
                 2.797   -0.25563070233011
                0.5215      1.093793361012
 s    1 1.00
                0.1596                   1
 p    3 1.00
                 9.439   0.056979251590039
                 2.002    0.31320721150073
                0.5456    0.76037674173753
 p    1 1.00
                0.1517                   1
 d    1 1.00
                  0.55                   1

3 0
 s    8 1.00
                 14710  0.00072067370873197
                  2207  0.0055504869689163
                 502.8   0.028254207662589
                 142.6    0.10639582836653
                 46.47    0.28668420124307
                  16.7    0.44843796582416
                 6.356    0.26464118141135
                 1.316   0.015326060993048
 s    8 1.00
                 14710  -0.00032119389049893
                  2207  -0.0025461915683188
                 502.8  -0.012643359507821
                 142.6   -0.05195749170489
                 46.47   -0.14344713812646
                  16.7   -0.33243762329603
                 6.356   -0.21865906750347
                 1.316     1.0955904138622
 s    1 1.00
                0.3897                   1
 p    3 1.00
                 22.67   0.064834021493887
                 4.977    0.34053535983101
                 1.347    0.73464640679382
 p    1 1.00
                0.3471                   1
 d    1 1.00
                  1.64                   1

4 0
 s    3 1.00
                 13.01   0.033498726389998
                 1.962    0.23480080117413
                0.4446     0.8136829578829
 s    1 1.00
                 0.122                   1
 p    1 1.00
                 0.727                   1

5 0
 s    3 1.00
                 13.01   0.033498726389998
                 1.962    0.23480080117413
                0.4446     0.8136829578829
 s    1 1.00
                 0.122                   1
 p    1 1.00
                 0.727                   1

6 0
 s    3 1.00
                 13.01   0.033498726389998
                 1.962    0.23480080117413
                0.4446     0.8136829578829
 s    1 1.00
                 0.122                   1
 p    1 1.00
                 0.727                   1

7 0
 s    8 1.00
                 14710  0.00072067370873197
                  2207  0.0055504869689163
                 502.8   0.028254207662589
                 142.6    0.10639582836653
                 46.47    0.28668420124307
                  16.7    0.44843796582416
                 6.356    0.26464118141135
                 1.316   0.015326060993048
 s    8 1.00
                 14710  -0.00032119389049893
                  2207  -0.0025461915683188
                 502.8  -0.012643359507821
                 142.6   -0.05195749170489
                 46.47   -0.14344713812646
                  16.7   -0.33243762329603
                 6.356   -0.21865906750347
                 1.316     1.0955904138622
 s    1 1.00
                0.3897                   1
 p    3 1.00
                 22.67   0.064834021493887
                 4.977    0.34053535983101
                 1.347    0.73464640679382
 p    1 1.00
                0.3471                   1
 d    1 1.00
                  1.64                   1

8 0
 s    3 1.00
                 13.01   0.033498726389998
                 1.962    0.23480080117413
                0.4446     0.8136829578829
 s    1 1.00
                 0.122                   1
 p    1 1.00
                 0.727                   1

[5d]
[7f]
[9g]

[MO]
 Sym= A
 Ene=               0
 Spin= Alpha
 Occup=    1.00000
   1    -0.00018718518580799
   2    9.288815456915e-05
   3    0.0028010907813243
   4    0.00037985405589143
   5    8.9208904950109e-06
   6    -1.3031120215203e-06
   7    0.0014177001397979
   8    -3.9331319377788e-05
   9    -0.00021534092213375
  10     2.62908749245e-05
  11    -0.00011212862928212
  12    -3.3262370173548e-06
  13    -4.5879965478205e-05
  14    -3.6553516524544e-06
  15       1.0021127204619
  16    0.0049236209980776
  17    -0.0085361925566238
  18    0.00033318022610067
  19    -8.9937292658479e-05
  20    0.00075718114536016
  21    0.0011757108884681
  22    -1.378786258349e-05
  23    0.00049130573774845
  24    0.00010782759832403
  25    -1.2694290202241e-05
  26    2.2525459692745e-05
  27    -0.00013269105135986
  28    -2.7600924035537e-05
  29    0.00016036706862981
  30    0.00067192917306092
  31    3.3828982318558e-05
  32    -9.8025531106528e-05
  33    -1.8644872280219e-07
  34    -0.00035359386351695
  35    0.00016649736814191
  36    -1.8481316830237e-06
  37    0.00078625478204418
  38    -0.00018890976594649
  39    -0.00011575931238085
  40    -1.0549151597241e-06
  41    -2.4798912875455e-05
  42    8.5169860644467e-07
  43    0.00061108429674603
  44    0.0014028553245958
  45    -2.5044988025963e-05
  46    -0.00015587724021476
  47    -0.0001860527414932
  48    0.0006837774047231
  49    0.0014227691898192
  50    -5.03697333825e-05
  51    0.0001049817895379
  52    -0.00014994212727596
  53    -7.3616999721964e-05
  54    0.00035930091837092
  55    0.00010649576136209
  56    -7.2770508254113e-06
  57    -1.6828090826092e-05
  58    -1.5340165454824e-05
  59    -2.2435658994969e-05
  60    -0.00010119752514049
  61    -5.9144981503242e-06
  62    7.2109384720619e-06
  63    -9.2770257431714e-06
  64    5.0994251627053e-05
  65    -7.5944689555344e-06
  66    -4.6772773712317e-06
  67    -1.1956010924579e-05
  68    5.3150722457867e-06
  69    -1.3153632478279e-05
  70    2.3665129516959e-05
  71    -6.2209791528767e-06
  72    -9.4153579616127e-05
  73    4.4960050141441e-05
  74    5.1947856384765e-05
  75    3.4298126937048e-05
  76    1.4174171309954e-05
 Sym= A
 Ene=               1
 Spin= Alpha
 Occup=    1.00000
   1       1.0021126228999
   2    0.0049253820792104
   3    -0.0085352243715037
   4    -0.00033457011939729
   5    0.00041706205196336
   6    -0.00063682234634232
   7    -0.0011762793980032
   8    0.00030493457827861
   9    -0.00038476514845452
  10    6.9276641750984e-05
  11    7.965853815968e-06
  12    -3.0447234414756e-05
  13    -0.00015500382540971
  14    2.9372449221236e-05
  15    -0.00018724662009027
  16    9.3381070745846e-05
  17    0.0028012850516633
  18    -0.00037908946602809
  19    6.753105063752e-06
  20    6.2642204172844e-06
  21    -0.0014173687101908
  22    -0.00016823040850258
  23    0.00013944155640861
  24    2.9205607071103e-05
  25    -8.3600633534665e-05
  26    7.1516020756644e-07
  27    -4.4176266969289e-05
  28    7.4926389227459e-05
  29    -1.534840930715e-05
  30    -2.2468601474581e-05
  31    -0.00010123460039803
  32    5.9449476288663e-06
  33    -4.6784708240485e-07
  34    1.1820867703385e-05
  35    -5.1009786020277e-05
  36    -8.8929646377435e-06
  37    -1.2343946577762e-06
  38    -1.7847406403954e-06
  39    8.0610232166656e-06
  40    8.1694203285935e-07
  41    2.952910363989e-05
  42    1.3464386353427e-06
  43    -9.402726558591e-05
  44    4.495149298855e-05
  45    -5.1929404105002e-05
  46    3.5429920563063e-05
  47    1.1188649064888e-05
  48    -7.2327076265674e-05
  49    0.00035982075145108
  50    -0.00010652072012786
  51    -1.6479242031846e-05
  52    8.255410490609e-06
  53    0.00068562730884002
  54    0.0014232132752251
  55     5.04032349744e-05
  56    -1.6057363186711e-05
  57    0.00018218214847435
  58    0.00016034666915159
  59    0.00067187070747739
  60    3.3739321636294e-05
  61    9.7976307730931e-05
  62    -0.00022733232100044
  63    0.00027063449849088
  64    -0.00016645046362246
  65    0.00050407305062069
  66    -0.00060362109198892
  67    -6.2042937367024e-05
  68    -8.9232633914724e-05
  69    0.0001734878464325
  70    4.8424862642499e-05
  71    7.3764843656726e-05
  72    0.00061287618375778
  73    0.0014033461743429
  74    2.5078821405521e-05
  75    -0.00023883835728052
  76    4.239386758627e-05
 Sym= A
 Ene=               2
 Spin= Alpha
 Occup=    1.00000
   1    3.644992593276e-05
   2    3.4528075329106e-05
   3    -0.0010592264468987
   4    -0.00011542525771199
   5    2.1290197071028e-05
   6    2.9817815969672e-05
   7    -0.00051232178804328
   8    -0.00017827411171715
   9    -0.00036285516958124
  10    8.5809595509369e-05
  11    -2.5974960950898e-05
  12    2.152685972959e-05
  13    -1.9573518855945e-06
  14    -1.5971707974936e-05
  15    -0.00017527831275639
  16    0.00021437767124878
  17    0.0030082820722823
  18    0.00032735588816479
  19    -2.1930866661177e-06
  20    0.00084173946393521
  21    -6.4079324853539e-05
  22    5.660361969388e-05
  23    0.0014085369373587
  24    0.00014724571791411
  25    8.1520659837024e-05
  26    4.0789765277881e-06
  27    2.3986569404071e-05
  28    -1.331704620038e-05
  29       1.0009649029572
  30    0.00092473262214741
  31    -0.0050856089611207
  32    -0.00068333728626006
  33    6.7355321737449e-05
  34    -0.0019296174143135
  35    0.00019756556642888
  36    4.707403970348e-05
  37    0.00069058448868669
  38    -0.00014331305548995
  39    -7.7642561583371e-05
  40    -3.1298594262642e-06
  41    -4.7252387219516e-06
  42    -1.4823637137423e-06
  43    -0.00025517940464259
  44    -8.6287881945693e-05
  45    -5.9002242122438e-06
  46    -6.1209302040747e-06
  47    -0.00015684200074295
  48    -0.00025872732099308
  49    -0.00015951428169973
  50    -4.7895559859689e-06
  51    3.3006825831462e-06
  52    -0.00015880118894382
  53    3.5515006119162e-05
  54    0.00014573768863732
  55    -3.2239380342359e-05
  56    1.1220506530031e-05
  57    -2.3575121647584e-06
  58    -2.0449121568343e-05
  59    -3.4109108719442e-05
  60    0.00012412287972426
  61    -5.3324516996826e-06
  62    -9.7452920336369e-06
  63    8.4198919930231e-06
  64    0.00012106566198907
  65    1.3726055331496e-05
  66    4.842995421102e-05
  67    1.2121120431085e-05
  68    1.7967074047918e-06
  69    9.7609242967958e-07
  70    6.2473034652999e-06
  71    -2.7894057587187e-07
  72    7.3975199108694e-05
  73    -0.00015648121547964
  74    -4.0417609077318e-06
  75    9.2562634984746e-06
  76    2.6615401417172e-05
 Sym= A
 Ene=               3
 Spin= Alpha
 Occup=    1.00000
   1    -0.00017522454841264
   2    0.00021651276033936
   3    0.0030092014841927
   4    -0.0003284620104265
   5    0.00053924836134468
   6    -0.0006457528510613
   7    6.2790880908715e-05
   8    0.00094887087338714
   9    -0.0010424892829682
  10    4.3406883401838e-05
  11    7.1562606786166e-05
  12    -0.00013787497442831
  13    -3.5385232864006e-05
  14    -4.2818601046912e-05
  15    3.6478958080979e-05
  16    3.4556114776971e-05
  17    -0.0010573251119915
  18    0.00011389702982081
  19    3.4175084412103e-05
  20    -8.6845256204857e-06
  21    0.00051149967538384
  22    -0.00037026038011344
  23    0.00016406422150094
  24     1.49090585998e-05
  25    -9.6075788133005e-06
  26    -7.5851312650453e-05
  27    -4.2762506070297e-05
  28    2.8866378936696e-05
  29    -2.0402735817504e-05
  30    -3.4111083118799e-05
  31    0.00012359030340674
  32    5.4985580843621e-06
  33    -2.0633230539139e-06
  34    -1.2479320091459e-05
  35    -0.00012084206107104
  36    4.1761340687702e-05
  37    -2.7962435536384e-05
  38    1.5189808632476e-06
  39    1.5740996626203e-06
  40    -1.3566165798761e-05
  41    1.4842141444974e-07
  42    -9.3586385405921e-07
  43    7.4251594089459e-05
  44    -0.00015646828365243
  45    3.9427889748306e-06
  46    2.4177371278964e-05
  47    -1.4470055442307e-05
  48    3.4038811980866e-05
  49    0.00014448847519445
  50    3.2412747811846e-05
  51    7.1544148431453e-06
  52    8.9996102716386e-06
  53    -0.00025820051551241
  54    -0.00016034262326397
  55    4.8672306647368e-06
  56    -9.9633603604367e-05
  57    0.00012365140970526
  58       1.0009649555643
  59    0.00092132111388979
  60    -0.005090065605181
  61    0.00066630436980182
  62    -0.0011898649872124
  63      0.00153074595639
  64    -0.00020959941550346
  65    0.00047929284417323
  66    -0.00049230537492659
  67    -4.9913871968438e-05
  68    -5.8700507524566e-05
  69    0.00012494783971438
  70    4.8935818585719e-05
  71    5.1242390354783e-05
  72    -0.00025427472878948
  73    -8.6535179491601e-05
  74    5.977788254993e-06
  75    -0.00010537376261997
  76    0.00011626020349262
 Sym= A
 Ene=               4
 Spin= Alpha
 Occup=    1.00000
   1    -4.4051324402027e-06
   2     -0.01996443792796
   3    -0.055921377993885
   4    -0.024978332377264
   5    -0.0081697774077675
   6    -0.0087682630649479
   7    -0.0060978169041962
   8    -0.016903458313692
   9    -0.0085716868628159
  10    0.00062421051799718
  11    -0.00041036944014453
  12    0.00020104340170005
  13    -0.00023552023796819
  14    -0.0017682930829178
  15    -0.0011057741740553
  16    -0.0039160525078679
  17    -0.0084270305892896
  18    0.00016570531629893
  19    -0.0061946824194479
  20    -0.0043706992225388
  21    -0.016047080086584
  22     0.025901185781844
  23    -0.0061600925111162
  24     0.010228142757132
  25     -0.01624973392671
  26     0.028899291674324
  27    -0.0082688233684004
  28    0.0063604986634588
  29    -0.0011249479171315
  30     0.027566443711782
  31     0.040786537907193
  32     -0.35957562497684
  33      0.54532825648744
  34      0.12889826591068
  35     -0.25532069416124
  36      0.38573438467991
  37     0.088958814776001
  38    -0.0039245132442421
  39    0.0056805581870192
  40    -0.0096236919418848
  41    0.0022944567183033
  42    -0.0036376268476091
  43     0.060056848878067
  44     0.060178406975831
  45    0.00051270302271699
  46    -0.00065316690753287
  47     0.002047874229298
  48    -0.028503931693266
  49    -0.027009633205767
  50    0.0012211563016937
  51    -0.00083348196639187
  52    -0.0010795980975501
  53    -0.0072141116438806
  54     0.032878210404559
  55    0.0035833514170671
  56    0.0006402624298713
  57    0.0011746964032294
  58    8.3455433818811e-05
  59    0.0030488037605839
  60    0.0096918892012504
  61      0.00624118487693
  62    -0.0020847817501007
  63      0.00551004126113
  64    0.0025681007306715
  65    -0.0027295438560984
  66    0.0069696779074855
  67    6.3645461442606e-05
  68    -0.00043170657487147
  69    -0.00010548739889051
  70    -0.00047779722473885
  71    0.00020745949982135
  72    0.0060222305573077
  73    0.00050894192462404
  74    -0.00075882327544907
  75    0.00076157715042745
  76    -0.00066670152659413
 Sym= A
 Ene=               5
 Spin= Alpha
 Occup=    1.00000
   1    0.00053813557106379
   2     0.028549474363335
   3     0.073932224333816
   4     0.036053210803657
   5    0.0029522915621915
   6    0.0072783803641185
   7     0.027631561724111
   8    0.0070466061875001
   9    -0.016865805603736
  10    -0.0017534923557543
  11    0.00060000075144229
  12    0.0013730315311175
  13    0.00065619709999389
  14    -0.0010199714436468
  15    0.0021904899835847
  16     0.001869004317642
  17    -0.012626139925172
  18    -0.00061353797641862
  19    -0.0045509565303887
  20    0.0015128371693812
  21     0.029456402618511
  22     0.013563350348541
  23     0.010930608637209
  24    -0.014599761886551
  25     0.022407522759392
  26     0.020989178530306
  27      0.01139778079416
  28    0.0044816987409061
  29    0.0014099706408763
  30    -0.0054802509832513
  31    -0.017912239374828
  32      0.51830778387654
  33      0.38303100611584
  34     -0.16739614077224
  35      0.36776033909961
  36      0.27230249374782
  37     -0.11630113924243
  38     0.005426256628377
  39    -0.0083884943245107
  40    -0.0067256248601777
  41    -0.0031314601505027
  42    -0.0027778137913104
  43    0.0094695308259995
  44      0.01194383563064
  45    -0.0018728032252209
  46    -0.00068552047705519
  47    5.8738811724383e-05
  48     -0.05391862673606
  49     -0.05311342972447
  50    -0.0010060242929156
  51    -8.135959771724e-05
  52    -0.0021578721561198
  53     0.013498659018429
  54    -0.0097238372838514
  55    -0.0022300329288081
  56    0.00023222396914551
  57    -0.0022524422392522
  58    0.0014948475444986
  59    -0.0002836921186147
  60     -0.01791470257379
  61    -0.0044638693703535
  62    0.0054941508866049
  63    -0.0073351240627714
  64    -0.0067781424014931
  65    0.0086203328596086
  66    -0.0084428267136116
  67    2.9107932579368e-05
  68    0.00037274676415114
  69    0.00023397330648272
  70    0.00027482225198574
  71    -0.00036892670162435
  72    -0.0027119627872114
  73    -0.013676025470775
  74    0.0025217339705058
  75    -0.0006108325235088
  76    0.0015792174093113
 Sym= A
 Ene=               6
 Spin= Alpha
 Occup=    1.00000
   1    -0.0021827563074114
   2    -0.0026492029540284
   3     0.010761808175612
   4    -0.00029956132835404
   5     0.001353493482829
   6    0.00087601046026624
   7     0.031946115268597
   8    -0.014881862637159
   9    0.0022722388025357
  10     0.024237210344769
  11    -0.016686476126955
  12    -0.0048865885045235
  13    -0.0078637856360879
  14     0.018493748232357
  15    -0.00052559446268948
  16    -0.031121646000954
  17    -0.081724883310477
  18     0.039587466101128
  19    -0.0088201877332895
  20    0.0035374039460694
  21      0.02835621577732
  22    0.0025374618228252
  23    -0.018047403690819
  24    0.0020756700417685
  25    -0.00083731747676046
  26    -0.00099791923668456
  27    -0.00057256935170571
  28    -0.00012432562336664
  29    -0.001453377060996
  30    0.00080860758220481
  31     0.019322508401658
  32    -0.0055068208249368
  33    0.00081223284136748
  34    -0.0099847404088316
  35    -0.0072019783820705
  36    -0.00078456327365587
  37    -0.013006972842756
  38    0.00033192992222725
  39    -0.00059179489686034
  40    0.00023157214777413
  41    -0.00015462006198603
  42    -2.1760859215102e-05
  43    0.0038448107665283
  44     0.013600519752721
  45    0.0025945664646581
  46    -0.0004899225196108
  47    0.0017514113843369
  48    -0.014369857131136
  49     0.014561512841337
  50    -0.0027801796042135
  51    0.0014452974260462
  52    -0.0019309071088253
  53     0.046064147340691
  54     0.047090620255344
  55    -0.0012884441165322
  56    0.0013288058965065
  57    -0.0013997552227107
  58    -0.001505889435512
  59    0.0032248413340376
  60     0.016342536775398
  61      0.57145721742898
  62     -0.10529125581401
  63     -0.32496484122819
  64      0.40540425623467
  65    -0.076962848201876
  66     -0.22880228908391
  67    -0.0078417945337087
  68    0.0057182487144046
  69    0.0024302009623183
  70    0.0023556619943058
  71    -0.0076159529099215
  72    0.00054962934754137
  73    -0.0020425974258318
  74    -0.001924386937429
  75    0.00061464553892097
  76    5.1787343575705e-05
 Sym= A
 Ene=               7
 Spin= Alpha
 Occup=    1.00000
   1    -0.00068203187300549
   2    -0.0039529284309165
   3    -0.010550170513045
   4    0.00023743486416743
   5    -0.0044159584921772
   6    0.00041650061082003
   7     0.011230247475583
   8     0.019692919759889
   9     0.021880411294348
  10    -0.021867956058462
  11    -0.014076953178519
  12    -0.0090675513778516
  13    -0.023393817326329
  14    0.0024931077790073
  15    8.1684135613272e-05
  16    -0.014669592651859
  17    -0.042973263486466
  18     0.018988055663943
  19    -0.010537112213652
  20    0.00070057250359579
  21    0.0017399660873104
  22    -0.018979213835047
  23    -0.0015578581238977
  24    -0.00018425787286344
  25    0.00089538469334172
  26    -0.00027663492039447
  27    -0.00044156384757396
  28    0.0014916409553321
  29    0.00031408960523576
  30    0.0029198136475128
  31     0.006579351558844
  32    -0.0053654979664107
  33    0.0018431086641023
  34    -0.0039046797875714
  35    -0.0013963353626425
  36     0.002523783745948
  37    -0.0049749713866899
  38    0.00023802719915474
  39    -0.00037457472734064
  40    0.00016498032119854
  41    -0.00032713832096449
  42    0.00011991946179332
  43    0.0060031384756997
  44    -0.0013102668058114
  45     0.000329585256087
  46    0.00025213582922138
  47    0.00073684222675865
  48    -0.0047449541108088
  49     0.030548219388309
  50    -0.003176596745965
  51    0.00098951276236576
  52    -0.00016643589521128
  53    -0.034792600516057
  54    -0.034427112628459
  55    -0.00095908377654232
  56    -0.0015115926592968
  57    0.00044265666141506
  58    -0.00086369572353982
  59     0.024618165777834
  60     0.035319203501855
  61      0.27176176336012
  62      0.52319040802778
  63      0.30995132129218
  64      0.19297301663819
  65      0.36888249302192
  66      0.22064536427724
  67    0.0073113048882613
  68    0.0058804917023026
  69    0.0035174389341986
  70     0.007705163457365
  71    0.00035491812574515
  72     0.057425347893394
  73     0.060022336275898
  74    -0.00033528039765693
  75     0.000534169522667
  76    -0.0020623593337076
 Sym= A
 Ene=               8
 Spin= Alpha
 Occup=    1.00000
   1    -0.0032159362151648
   2      0.13860859652445
   3    -0.017303971093879
   4    -0.090736520903154
   5      0.17771901681857
   6     -0.21251074210036
   7     -0.02609493063715
   8      0.02673254552264
   9    -0.036506874481429
  10     0.017816792699773
  11     0.022005813125679
  12    -0.044549880456501
  13    -0.012855678591148
  14     -0.01948701038854
  15    -0.00034801930083764
  16    -0.019787564905122
  17     0.014197439182432
  18     0.021224582382479
  19    -0.0068346782953139
  20    -0.0052118354444413
  21    0.0051589159706397
  22    0.0085346852148251
  23    -0.0056215688423718
  24    -0.00046331443504995
  25    0.0079580901699159
  26    0.0034000493013198
  27    0.0031943132087337
  28    -0.0073948248716512
  29    0.00047411694170125
  30    0.0040446697723974
  31    0.0067005122751614
  32    -0.0087108644342775
  33    0.0010099268272246
  34    -0.010218143086121
  35    -0.0095538718450429
  36    -0.0010316123947584
  37    -0.0057072338942664
  38    0.00014821159941395
  39    -0.0003245230617152
  40    0.00031336669941847
  41    -0.00029770482331929
  42     7.33598706653e-05
  43    0.0050473806836759
  44     0.015649369108672
  45    0.0011561494082395
  46    -0.0012333683084535
  47    -2.088101320926e-05
  48    -0.014802423281887
  49    -0.027434209618913
  50    0.00099880123225636
  51    -0.00037144179275597
  52    -0.00090442656107361
  53     -0.01447292558443
  54    -0.014179694872446
  55    -0.0011674626718184
  56    0.0051514401052456
  57    -0.0082569379185907
  58    -0.0075692519308751
  59      0.22649077289683
  60      0.21070533507416
  61      0.13415756724096
  62     -0.28424067146911
  63      0.33551773240134
  64     0.088008563777115
  65     -0.18627148366584
  66      0.21962535260652
  67    0.0057752043111905
  68    0.0078111694546031
  69    -0.015437065253011
  70    -0.0048243436391929
  71    -0.0067190451830822
  72    -0.016719814641025
  73    -0.022482806983315
  74    -0.001593631462148
  75    0.0076399136718497
  76    -0.0063400436330948
 Sym= A
 Ene=               9
 Spin= Alpha
 Occup=    1.00000
   1    0.00034371399009416
   2     0.019507210242313
   3     -0.01443656852256
   4     0.021232768343735
   5    0.0076694744912078
   6    -0.00057724487472588
   7    0.0051562080608511
   8    -0.0032629384036396
   9    -0.010148378254773
  10    0.0041557674659513
  11    -0.010840737237837
  12    0.0017519789955224
  13    -0.0010338243461675
  14    -0.00052805567141376
  15    0.0031769854443946
  16     -0.13776322230433
  17     0.017804679527953
  18    -0.090189498856309
  19    0.00020374115453061
  20     -0.27768635559629
  21     -0.02591026941595
  22    0.0028756001978852
  23    -0.045384646480136
  24    -0.049395189624108
  25    -0.029355141942883
  26    0.0011313663728357
  27    -0.0054127815468825
  28    -0.00074547709203229
  29    0.0075649360681082
  30     -0.22651343897984
  31     -0.21072456778678
  32      0.13428380927266
  33    0.0020314660066364
  34      0.43972069003159
  35     0.088057193875234
  36    0.0015112136502306
  37      0.28800101836214
  38    -0.017073097317275
  39    -0.010309336517623
  40    -0.00012654366253025
  41    -0.0017135766822193
  42    -0.0001238183043759
  43      0.01766008495012
  44     0.022633410145488
  45    -0.0016205156941291
  46    -0.0016852772536858
  47    -0.0097350521617641
  48     0.015155802263497
  49     0.014371983509987
  50    -0.0011820572109944
  51    0.0012890414422551
  52    -0.0096173905229945
  53     0.013691819195217
  54     0.027125679656175
  55    0.00095251300608254
  56    0.00087915517887475
  57    -0.00038466641263864
  58    -0.00047295079962791
  59    -0.004036885622284
  60    -0.0066878883111064
  61    -0.0087151827010177
  62     0.005814081399271
  63    -0.0084300003170655
  64    -0.0095645828982569
  65    0.0045290467714323
  66    -0.0036106547169098
  67    8.6623708314041e-05
  68    0.00029193993136173
  69    3.2249067522644e-05
  70    0.00043559579984868
  71    -0.00015544607226574
  72    -0.0042938688142862
  73    -0.015314006712424
  74    0.0011858784707753
  75    0.00099213293002768
  76    0.00076379082297636
 Sym= A
 Ene=              10
 Spin= Alpha
 Occup=    1.00000
   1    9.9640574545728e-05
   2    0.00072320888695715
   3    0.00012631788746222
   4        0.003623788203
   5    0.00058072573549337
   6    -0.0085185467132703
   7     0.013047447104028
   8    -0.0068264239528979
   9    -0.015039433454238
  10    0.00045507737645877
  11    -0.004331601273923
  12    0.00018448555628909
  13    -0.00068607950831961
  14    7.4321938461273e-05
  15    -0.0066683324244577
  16    -0.068343515920034
  17     -0.02960579694251
  18    -0.030314800108501
  19    0.00085128531613153
  20    -0.094098551237976
  21    -0.0015039343112255
  22    0.0014686237744738
  23    -0.0062704131959161
  24    -0.0066232897185168
  25    -0.0018748847440008
  26    -0.0010916929061206
  27    -0.00030511451941691
  28    -0.00061689808752692
  29    -0.0018678611805928
  30      0.43762547603682
  31      0.52213438960541
  32      0.12760475488527
  33    -0.027490885264531
  34      0.29461824262565
  35     0.087939736517848
  36     -0.01992586598583
  37      0.20416786203561
  38    -0.0068649886290632
  39    -0.0047807846648926
  40    0.00041412157510039
  41    -0.00082443233259547
  42    0.00016894272310068
  43    -0.0048504871377825
  44      0.01321674875626
  45    -0.0012981533367096
  46    7.6238189098142e-05
  47    -0.0042855785248263
  48    -0.00046962551557032
  49     0.014049878521314
  50    -0.0013238853864253
  51    -0.00022337819812924
  52    -0.0040580777445329
  53    -0.00070433250098226
  54     0.022875975438194
  55    0.00061332344506267
  56    3.8125075823597e-05
  57    -0.00031904681635243
  58    -0.00026725637210742
  59    -0.0015825059178483
  60      -0.0031343946038
  61    -0.0033611234604634
  62     0.001336855220366
  63    -0.00073276527137125
  64    -0.0037318756424683
  65    0.0017539928503912
  66    0.00099466184534492
  67    -5.6963892417884e-05
  68    0.00013486272167153
  69    -9.1011457922941e-05
  70    0.00014148090907873
  71    -0.00016413850381262
  72    -0.0012894641840819
  73    -0.0079821767403745
  74    -0.00013931856069347
  75    0.00013826045531713
  76    0.00015304727196011
 Sym= A
 Ene=              11
 Spin= Alpha
 Occup=    1.00000
   1    -0.0066864359881753
   2    -0.068891563693183
   3    -0.029789116185876
   4     0.030594829131254
   5    -0.059709456211127