[Molden Format]
made by pyscf v[2.0.1]
[Atoms] (AU)
C   1   6     0.00000000000000     0.00000000000000     0.00000000000000
C   2   6     2.85207482267819     0.00000000000000     0.00000000000000
F   3   9     3.65415199667903     0.00000000000000     2.45977207315200
H   4   1     3.58561868306314    -1.66499644088808    -0.96128614334650
H   5   1     3.58561868306314     1.66499644088808    -0.96128614334650
H   6   1    -0.73354386038494    -0.33385117401718     1.89336409366168
F   7   9    -0.80207717400084     2.31142966595619    -0.84129159700793
H   8   1    -0.73354386038494    -1.47277581671572    -1.23580564461298
[GTO]
1 0
 s    8 1.00
                  6665  0.00069158396281299
                  1000  0.0053257961529341
                   228   0.027060721042034
                 64.71    0.10165684614077
                 21.06     0.2745748236174
                 7.495    0.44829431892377
                 2.797    0.28490261071525
                0.5215   0.015194859206082
 s    8 1.00
                  6665  -0.00029326965268655
                  1000  -0.0023180354739745
                   228  -0.011499786038565
                 64.71  -0.046826727009787
                 21.06   -0.12846616875047
                 7.495   -0.30126627246289
                 2.797   -0.25563070233011
                0.5215      1.093793361012
 s    1 1.00
                0.1596                   1
 p    3 1.00
                 9.439   0.056979251590039
                 2.002    0.31320721150073
                0.5456    0.76037674173753
 p    1 1.00
                0.1517                   1
 d    1 1.00
                  0.55                   1

2 0
 s    8 1.00
                  6665  0.00069158396281299
                  1000  0.0053257961529341
                   228   0.027060721042034
                 64.71    0.10165684614077
                 21.06     0.2745748236174
                 7.495    0.44829431892377
                 2.797    0.28490261071525
                0.5215   0.015194859206082
 s    8 1.00
                  6665  -0.00029326965268655
                  1000  -0.0023180354739745
                   228  -0.011499786038565
                 64.71  -0.046826727009787
                 21.06   -0.12846616875047
                 7.495   -0.30126627246289
                 2.797   -0.25563070233011
                0.5215      1.093793361012
 s    1 1.00
                0.1596                   1
 p    3 1.00
                 9.439   0.056979251590039
                 2.002    0.31320721150073
                0.5456    0.76037674173753
 p    1 1.00
                0.1517                   1
 d    1 1.00
                  0.55                   1

3 0
 s    8 1.00
                 14710  0.00072067370873197
                  2207  0.0055504869689163
                 502.8   0.028254207662589
                 142.6    0.10639582836653
                 46.47    0.28668420124307
                  16.7    0.44843796582416
                 6.356    0.26464118141135
                 1.316   0.015326060993048
 s    8 1.00
                 14710  -0.00032119389049893
                  2207  -0.0025461915683188
                 502.8  -0.012643359507821
                 142.6   -0.05195749170489
                 46.47   -0.14344713812646
                  16.7   -0.33243762329603
                 6.356   -0.21865906750347
                 1.316     1.0955904138622
 s    1 1.00
                0.3897                   1
 p    3 1.00
                 22.67   0.064834021493887
                 4.977    0.34053535983101
                 1.347    0.73464640679382
 p    1 1.00
                0.3471                   1
 d    1 1.00
                  1.64                   1

4 0
 s    3 1.00
                 13.01   0.033498726389998
                 1.962    0.23480080117413
                0.4446     0.8136829578829
 s    1 1.00
                 0.122                   1
 p    1 1.00
                 0.727                   1

5 0
 s    3 1.00
                 13.01   0.033498726389998
                 1.962    0.23480080117413
                0.4446     0.8136829578829
 s    1 1.00
                 0.122                   1
 p    1 1.00
                 0.727                   1

6 0
 s    3 1.00
                 13.01   0.033498726389998
                 1.962    0.23480080117413
                0.4446     0.8136829578829
 s    1 1.00
                 0.122                   1
 p    1 1.00
                 0.727                   1

7 0
 s    8 1.00
                 14710  0.00072067370873197
                  2207  0.0055504869689163
                 502.8   0.028254207662589
                 142.6    0.10639582836653
                 46.47    0.28668420124307
                  16.7    0.44843796582416
                 6.356    0.26464118141135
                 1.316   0.015326060993048
 s    8 1.00
                 14710  -0.00032119389049893
                  2207  -0.0025461915683188
                 502.8  -0.012643359507821
                 142.6   -0.05195749170489
                 46.47   -0.14344713812646
                  16.7   -0.33243762329603
                 6.356   -0.21865906750347
                 1.316     1.0955904138622
 s    1 1.00
                0.3897                   1
 p    3 1.00
                 22.67   0.064834021493887
                 4.977    0.34053535983101
                 1.347    0.73464640679382
 p    1 1.00
                0.3471                   1
 d    1 1.00
                  1.64                   1

8 0
 s    3 1.00
                 13.01   0.033498726389998
                 1.962    0.23480080117413
                0.4446     0.8136829578829
 s    1 1.00
                 0.122                   1
 p    1 1.00
                 0.727                   1

[5d]
[7f]
[9g]

[MO]
 Sym= A
 Ene=               0
 Spin= Alpha
 Occup=    1.00000
   1       1.0021195415962
   2    0.0049399428622908
   3    -0.0086083078726204
   4    -0.00035100583846952
   5    0.00065656910285215
   6    -0.00033470713753977
   7    -0.0011946013143586
   8    0.00044976576541082
   9    -0.00021281728278978
  10    6.3262073055949e-05
  11    1.0493102447534e-05
  12    2.9648254239643e-06
  13    -0.0001633303235849
  14    2.4389056677846e-05
  15    -0.00019601574510346
  16    7.5909041117502e-05
  17    0.0028749475072885
  18    -0.00038131411588897
  19    9.9482748002438e-06
  20    9.5227105836784e-07
  21    -0.0014606888599384
  22    -0.0002115047559495
  23    0.00017621508042617
  24    2.9972572481905e-05
  25    -3.6914823920241e-05
  26    -5.1694913741489e-06
  27    -4.447404263997e-05
  28    0.00010836933743113
  29    -1.8789316490084e-06
  30    3.8881752615372e-06
  31    -0.00017271103085561
  32    -2.9482622013954e-06
  33    -5.4412893118629e-06
  34    8.5882372147401e-06
  35    -2.4393167702348e-05
  36    2.8126025521567e-05
  37    1.3839541396059e-05
  38    -4.9705229352909e-06
  39    8.8175072754147e-06
  40    1.1533600635243e-06
  41    2.8321099946891e-05
  42    -2.0332374412658e-06
  43    -8.7659634253378e-05
  44    2.2423753382708e-05
  45    -4.4121533884628e-05
  46    4.7841997259782e-05
  47    1.5506206708274e-05
  48    -6.7703654960377e-05
  49    0.0003895205844622
  50    -0.00010647612103554
  51    -1.712260730758e-05
  52    3.2771568921156e-06
  53    0.00068246538450439
  54    0.0014302488528311
  55    4.3833542894135e-05
  56    -0.00010761249342474
  57    0.00015711871230149
  58    0.00015830864187531
  59    0.00066749690559507
  60    4.7635215620513e-05
  61    9.7910560468425e-05
  62    -0.0003328943026289
  63    0.00011827156918789
  64    -0.00016561949924025
  65    0.00073169770251834
  66    -0.0002534158169642
  67    8.0648137531766e-05
  68    -3.9336367995958e-05
  69    0.00011049288108385
  70    0.00012945905332298
  71    0.00010769098314989
  72    0.00060663702371887
  73    0.0014087660393616
  74    2.5186281379403e-05
  75    -0.00023004179930723
  76    -8.564178161687e-05
 Sym= A
 Ene=               1
 Spin= Alpha
 Occup=    1.00000
   1    -0.00019596541599365
   2    7.5619111095321e-05
   3    0.0028748630094368
   4    0.00038193953236357
   5    4.2109601887154e-06
   6    7.6902362188903e-06
   7    0.0014609755071764
   8    9.3232101524952e-05
   9    -0.00025958592823974
  10    2.712625169412e-05
  11    -0.00011437137033519
  12    -6.3191440075948e-06
  13    -4.6142234952397e-05
  14    -2.3586905055404e-06
  15       1.0021196344293
  16    0.0049381875496698
  17    -0.0086092671515688
  18    0.00034964645266694
  19    -8.968871072768e-05
  20    0.00073263615877467
  21    0.0011940540348314
  22    -4.6055580531781e-05
  23    0.00049593605764361
  24    0.00010277275431389
  25    -1.921905305109e-05
  26    1.9541957622458e-05
  27    -0.00014046060474129
  28    -1.8180049509469e-05
  29    0.00015832926252368
  30    0.0006675471051978
  31    4.7746208896163e-05
  32    -9.797249398897e-05
  33    -2.7270934392738e-06
  34    -0.00035340816650124
  35    0.00016564651953482
  36    1.2099289123287e-05
  37    0.00077409170495699
  38    -0.00018671047000547
  39    -0.00011463960460849
  40    -1.8632283269283e-06
  41    -2.4878918921559e-05
  42    1.3046482952652e-07
  43    0.00060462298790442
  44    0.0014081999673891
  45    -2.5144437628204e-05
  46    -0.00015932908277235
  47    -0.00018694075491891
  48    0.00068088295992841
  49    0.0014298496767005
  50    -4.3806391947582e-05
  51    0.00011100109469301
  52    -0.00015490874630392
  53    -6.9190922446954e-05
  54    0.00038891021695987
  55    0.00010644029743209
  56    -2.7951619850667e-06
  57    -1.7114185786009e-05
  58    -1.8724575398416e-06
  59    3.9088138227642e-06
  60    -0.0001727128932268
  61    2.9661289967429e-06
  62    6.1955366228264e-06
  63    -8.0136713152384e-06
  64    2.4359870592021e-05
  65    2.2639935161513e-05
  66    2.1801522481571e-05
  67    -2.0696639974364e-05
  68    4.9260358318563e-06
  69    -5.4332045887357e-06
  70    1.9248232056353e-05
  71    -7.5996760252812e-06
  72    -8.7175819136339e-05
  73    2.2677682697648e-05
  74    4.416113767999e-05
  75    3.0947878992764e-05
  76    3.9630895821957e-05
 Sym= A
 Ene=               2
 Spin= Alpha
 Occup=    1.00000
   1    -0.00016962043594383
   2    0.00021792298449047
   3    0.0028642411563811
   4    -0.00033237879767502
   5    0.00078045956508639
   6    -0.00028587120726484
   7    -1.7331371525252e-05
   8    0.0012893245751794
   9    -0.00046991172157368
  10    -5.7747706389088e-05
  11    2.407912415889e-05
  12    -8.5040097307888e-05
  13    -0.00010327468941057
  14    -7.1628956835461e-05
  15    3.967664541541e-05
  16    4.3308334415312e-05
  17    -0.0010365650453058
  18    0.00012739182322939
  19    2.3530013126074e-05
  20    -3.3898225269053e-06
  21    0.00035016985222118
  22    -0.00035887565276951
  23    0.00014913287649403
  24    -3.2861756844187e-05
  25    -8.1132125270064e-06
  26    -5.9015042345858e-05
  27    -5.7063988000143e-05
  28    3.3916877190482e-05
  29    4.2151953158654e-06
  30    1.3862613681973e-05
  31    4.5017525202813e-05
  32    -2.1284860303083e-05
  33    2.7055180223202e-06
  34    -1.2570409604945e-05
  35    -5.8230376258091e-06
  36    1.5971041000101e-05
  37    -2.7060196850834e-05
  38    8.9736791558581e-06
  39    9.7593883422788e-07
  40    -1.0092478461698e-05
  41    -3.9173733385326e-06
  42    3.4084195527612e-06
  43    7.5054940323713e-05
  44    1.5608915443224e-05
  45    -2.3516625290537e-05
  46    4.3614138532592e-05
  47    -2.8218690455064e-05
  48    3.4672548030436e-05
  49    0.00015784199737656
  50    3.9204959968312e-05
  51    -2.8867467989226e-06
  52    -2.0849878384539e-06
  53    -0.0002588530019355
  54    -0.00014200647304594
  55    2.8839957571552e-06
  56    -0.00014421834305328
  57    6.1641655961211e-05
  58       1.0009604647655
  59    0.00096971529126134
  60    -0.0049909582491629
  61    0.00068030762768734
  62    -0.0017631045404093
  63    0.00066540430110575
  64    -0.00018435055535409
  65    0.00067431770382499
  66    -0.00022172991008186
  67    5.0091445581396e-05
  68    -2.5935688607039e-05
  69    8.1976236985612e-05
  70    0.00010821858024986
  71    7.139950127706e-05
  72    -0.00025256289201404
  73    -0.00014254859453076
  74    4.2998632916819e-06
  75    -0.00014896874739123
  76    4.5995650604272e-05
 Sym= A
 Ene=               3
 Spin= Alpha
 Occup=    1.00000
   1    3.9672512886294e-05
   2    4.3648628878317e-05
   3    -0.0010374100754613
   4    -0.00012817754045983
   5    5.1123717361127e-06
   6    2.4831465140432e-05
   7    -0.00035009547878776
   8    1.7590107667777e-05
   9    -0.0003880974725881
  10    8.7288798933038e-05
  11    -3.4838164041535e-05
  12    -8.6251620366158e-06
  13    1.2195437905415e-05
  14    -3.9784298900788e-06
  15    -0.00016981247511398
  16    0.00021418267940662
  17    0.0028623546945018
  18    0.00033053693213068
  19    -1.6812308380027e-06
  20    0.00082903054084372
  21    1.6560575278834e-05
  22    -7.7123338024063e-07
  23     0.001372328139077
  24    0.00014512997067954
  25    7.4995417541532e-05
  26    -2.6546697718607e-08
  27    1.3676934260054e-05
  28    1.8133144666584e-06
  29       1.0009603799305
  30    0.00098456894367671
  31    -0.0049730589382071
  32    -0.00068550619714966
  33    1.8152733041447e-05
  34    -0.0018714203359941
  35    0.00018064438855224
  36    1.9348898554941e-05
  37    0.00071840356703496
  38    -0.00014499848537173
  39    -7.5963582575803e-05
  40    2.029051740871e-07
  41    -4.1753552488071e-06
  42    -1.8489177207076e-08
  43    -0.00025384362506628
  44    -0.0001422405541114
  45    -4.27932536521e-06
  46    -7.8476619855752e-06
  47    -0.0001558960132002
  48    -0.00025954244309691
  49    -0.00014111010228596
  50    -2.8712295116219e-06
  51    8.7299400707525e-06
  52    -0.0001567627144395
  53    3.648203865201e-05
  54    0.0001597072255708
  55    -3.9033182960834e-05
  56    -2.9202773047201e-06
  57    -2.1061886533969e-06
  58    4.2095032357796e-06
  59    1.3849275314419e-05
  60    4.4991526815921e-05
  61    2.1283564892403e-05
  62    -1.0905679715934e-05
  63    6.874497969595e-06
  64    5.7894128221568e-06
  65    -2.0059255830154e-05
  66    2.4206800821764e-05
  67    5.7121406571272e-06
  68    -2.8669588628321e-06
  69    -1.1492992800764e-05
  70    -5.810381955247e-06
  71    -2.0769094273798e-06
  72    7.444093766676e-05
  73    1.5179974015397e-05
  74    2.3438169595805e-05
  75    -1.1606028129503e-05
  76    5.0674885986705e-05
 Sym= A
 Ene=               4
 Spin= Alpha
 Occup=    1.00000
   1    -0.0010372923502771
   2    -0.022773288449139
   3    -0.052774228925907
   4    -0.029823467600933
   5    -0.0041365768781569
   6    -0.010228918464044
   7    -0.0096958681002862
   8    0.0056131661204794
   9    0.0097199921959936
  10    0.00095664821479111
  11    -0.00060355564885398
  12    0.00080958328772199
  13    -0.00083200427229796
  14    -0.0017663418040813
  15    -0.0010601180676329
  16    -0.0031466316377199
  17    -0.0091886565303156
  18    0.00094310893493778
  19    -0.0057518974989756
  20    -0.003005571667708
  21    -0.017666614158868
  22     0.019893008316669
  23    -0.0091884150846355
  24     0.011620654575813
  25    -0.017826284727364
  26     0.027206565678765
  27    -0.0095418900632047
  28    0.0063536498575547
  29    -0.0011294657643391
  30     0.021585512053854
  31     0.035016477612745
  32     -0.41001244680889
  33      0.50544664703596
  34      0.14096301930097
  35     -0.29091977153471
  36      0.35846210979214
  37     0.097556474831582
  38    -0.0043283183762994
  39    0.0065771355891318
  40    -0.0089596937426858
  41    0.0025283957560653
  42    -0.0033074805721407
  43     0.059980976455066
  44     0.058222528288001
  45    0.00059820854018575
  46    -0.00047487446669025
  47    0.0021070343289726
  48    -0.023502990834184
  49    -0.021760686844294
  50     0.001413553617729
  51    -0.00065909548453464
  52    -0.00064112960521377
  53    -0.011008365606333
  54     0.010454122148879
  55    0.0017834975153338
  56    0.00027970124242843
  57    0.0018886598167068
  58    0.00061544078813474
  59    0.0030880900810321
  60    0.0039017595364379
  61    0.0050677775504206
  62    -0.0036668751429385
  63    0.00058268753496145
  64    0.0020479677708412
  65    -0.0047390242090677
  66    -0.00047585456790788
  67    7.6936869473353e-05
  68    -0.00018790838549321
  69    0.0002299281677649
  70    -0.00043897284482999
  71    0.00055415610325231
  72     0.012638223409375
  73     0.022951888639289
  74    -0.00048485526661354
  75    0.0014425082670684
  76    0.00045030765384736
 Sym= A
 Ene=               5
 Spin= Alpha
 Occup=    1.00000
   1    -0.00056007228135006
   2     0.024011680784142
   3      0.07778211294061
   4     0.034202953146739
   5    -0.00059972893062173
   6     0.013877229030103
   7     0.022955120036575
   8    -0.0024160489444199
   9     0.005452636584308
  10    -0.00099578461671712
  11    0.00067588101894827
  12    0.00035742537774055
  13    0.00029527811284709
  14    -0.0012582097473222
  15    0.0019861308675699
  16    0.0025950092961267
  17    -0.0089711112084524
  18    7.048015699708e-07
  19    -0.0050896259268658
  20    0.0028442188088996
  21     0.026522899263621
  22     0.016721866832464
  23    0.0059995400877152
  24    -0.013823039369696
  25     0.020987822532873
  26     0.023468471079332
  27     0.010835541497446
  28    0.0051123972467882
  29    0.0011928139235802
  30    -0.017018364171056
  31    -0.028612916536879
  32      0.47914986664681
  33      0.43477542992287
  34     -0.15776400926956
  35      0.34013276418541
  36      0.30867092130464
  37     -0.10995927491405
  38    0.0050062885365575
  39    -0.0077291892937837
  40    -0.0076427233219012
  41    -0.0027441453345226
  42    -0.0030188221444628
  43     0.015347682237466
  44     0.016223877650421
  45    -0.0017177772314746
  46    -0.00076930665413388
  47    0.00057151436665476
  48    -0.055952692639991
  49    -0.053964906542581
  50    -0.0010128873548583
  51    -0.00022442092200493
  52    -0.0018129214524927
  53     0.011900419277965
  54     -0.02654512043768
  55    -0.0039832681017618
  56    0.00095650998542901
  57    -0.0021055126544433
  58    0.00055146587336343
  59    -0.00046849211001583
  60    -0.0066864021578508
  61    -0.0026799488266193
  62    0.0044980005921362
  63    -0.004049100239894
  64    -0.0048763673122206
  65    0.0069239126356615
  66    -0.003219143211936
  67    0.0002054620742297
  68    0.00021328916460411
  69    -0.00010581966955582
  70    0.00029373507970232
  71    -0.000397508185844
  72    -0.011774731751272
  73    -0.012222032354926
  74    0.0031058788156143
  75    -0.0010305691342384
  76    0.00047707157326367
 Sym= A
 Ene=               6
 Spin= Alpha
 Occup=    1.00000
   1    -0.001922036850886
   2    -0.0032080708749827
   3    0.0083342089723302
   4    0.00039225895900742
   5    -0.00060166942742099
   6     0.002694606902923
   7     0.027093513658807
   8     -0.01137843874489
   9    -0.014327249311062
  10     0.016519726753602
  11    -0.0025034107884483
  12    -0.021844664397703
  13    -0.0095433223930802
  14     0.021705123550392
  15    0.00053259860799329
  16    -0.024011562632567
  17    -0.078381451503046
  18     0.034815566384435
  19    -0.013125417711329
  20    0.0048798663619177
  21     0.023191870802526
  22    -0.0040388932187153
  23    0.0039943653111886
  24    0.00010665543799009
  25    -0.0012589865371171
  26    -0.00070910795053254
  27    -0.00087611499214506
  28    0.00020935068511134
  29    -0.00053833542598487
  30    0.00054391898087634
  31    0.0068600595438828
  32    -0.0028541169876189
  33    0.0022415943283499
  34    -0.0057338117936744
  35    -0.0050215825083776
  36    0.0006139262788306
  37    -0.0077003871014417
  38    0.00024125248099823
  39    -0.00045748573498811
  40    0.00029689199855247
  41    -5.5224028540346e-05
  42    6.382234910168e-05
  43     0.012384956157165
  44     0.012713720791367
  45    0.0030920618813624
  46    -4.1992418171359e-05
  47    0.0011689984028034
  48    -0.011896088904013
  49     0.026465235085626
  50    -0.0040138161390367
  51     0.001652128863316
  52    -0.0016209336674918
  53     0.052668979236539
  54     0.052616694563043
  55    -0.001141199920041
  56    0.0017543847913752
  57    -0.00022953321629503
  58    -0.0011744234218416
  59      0.01454582276443
  60     0.025811846245653
  61      0.48724872336624
  62    0.0029864230929732
  63     -0.45405911144702
  64      0.34581251271957
  65    0.0002153867960718
  66     -0.32149671453328
  67    -0.0046887393777051
  68    -9.3925735000943e-05
  69     0.007673052378302
  70    0.0030055110097563
  71    -0.008423126110142
  72    -0.013329782795734
  73    -0.014759326920773
  74    -0.0016827853799704
  75    -0.00017924649653818
  76    0.00085012539573891
 Sym= A
 Ene=               7
 Spin= Alpha
 Occup=    1.00000
   1    -0.0009420220018485
   2    -0.0036347671401897
   3    -0.0096728080352327
   4    -0.00051631044627693
   5    -0.0024179180542616
   6    -0.0018245565715632
   7     0.017391286714681
   8    -0.00092316003322315
   9     0.023147852853781
  10    -0.011917776572403
  11    -0.012118109296479
  12     0.017647156678869
  13    -0.022775177658169
  14     0.014083014609368
  15    -0.0010453839866617
  16    -0.021786900994934
  17    -0.051030365436119
  18     0.029409154698946
  19    -0.011262371904759
  20    -0.00063347139191574
  21    0.0094870490180288
  22      0.01096398956813
  23    0.0017562127140583
  24    -0.00014294923306585
  25    0.0013318367792119
  26    0.00038212676868338
  27    -0.0014719349402523
  28    0.0010421951578537
  29    0.00061613619299379
  30    0.0030290258496814
  31    0.0036373687993218
  32    -0.0049344528692534
  33    -0.00072063180939338
  34    -0.0033899867174025
  35    -0.0018963951949672
  36    -0.0020385974500067
  37    -0.0040262135190188
  38    0.00018394200745272
  39    -0.00057716851845288
  40    0.00027691556297346
  41    -0.00037354851366686
  42    -1.3828544285652e-05
  43     0.013354153431475
  44      0.02315872951038
  45    0.00040602129843861
  46    0.00095340723061901
  47    0.0012078777601264
  48    -0.010809333567192
  49    0.0097156181923102
  50    -0.001711284030492
  51    0.0018211822509892
  52    -0.00035825292195228
  53     -0.02304023271939
  54    -0.022143256131559
  55    -0.0013337085510766
  56    -0.00077503996955509
  57    -0.00042420418897287
  58    -0.0010844927350437
  59     0.018798339274082
  60     0.031553313442121
  61       0.4023243560638
  62      0.30340538595256
  63      0.43552705258465
  64      0.28541889675949
  65      0.21287504065238
  66       0.3094979331209
  67    0.0045525733214867
  68    0.0053836129569486
  69    -0.0054616334456652
  70    0.0075455467152996
  71    -0.0049317725064308
  72     0.056866734651205
  73     0.057185962466848
  74    -0.00069811018126565
  75    0.0016731841568573
  76    -0.0013163307635153
 Sym= A
 Ene=               8
 Spin= Alpha
 Occup=    1.00000
   1     0.003182025982594
   2     -0.13879790654744
   3     0.014344450459206
   4     0.090761021020477
   5     -0.26067110546577
   6     0.094675602581144
   7     0.025004113226434
   8    -0.044243943195144
   9     0.016239391525487
  10      0.01987467958494
  11    -0.010059793080874
  12     0.029376871795075
  13     0.034316882552997
  14     0.028472491947163
  15    0.00045680683935513
  16     0.017593132462274
  17     -0.01530304309622
  18    -0.022299443669473
  19    0.0089684621486843
  20    0.0023423732265124
  21    -0.0091157127838468
  22    -0.0064872533309805
  23    0.0044238714313685
  24    -0.00061064083991579
  25    -0.0035954753016434
  26    -0.0029865303353084
  27    -0.0040813730169401
  28     0.010513983623257
  29    -0.00035676894018327
  30    -0.0026093801013251
  31    -0.0031607508656133
  32     0.005468646847585
  33    -0.00081269839495473
  34     0.004997400160812
  35    0.0081503443044677
  36    0.00024149279394121
  37    0.0021564718613238
  38    -7.0341726225036e-05
  39    0.00047661871246275
  40    -0.00033134791368785
  41    0.00032544943353323
  42    1.4408058539087e-05
  43    -0.014603103032176
  44    -0.020505702738043
  45    -0.00047347667945727
  46    0.0015282172234568
  47    -0.00071522645919022
  48     0.016650380119564
  49     0.030909557581041
  50    -0.00099978948879585
  51    6.886040988432e-05
  52    0.00024251035886843
  53     0.015253913757959
  54     0.016125797886189
  55    0.0011996025804134
  56    -0.008605884975693
  57    0.0047158239189482
  58    0.0073855568131697
  59     -0.22650999122401
  60      -0.2092820740355
  61     -0.13237125478357
  62      0.41398372036337
  63     -0.15102014105584
  64    -0.086404095037348
  65       0.2710580384237
  66    -0.098620643489797
  67    0.0068395591954832
  68    -0.0034466798132174
  69      0.01003416039065
  70     0.012239615770933
  71    0.0095884030729672
  72     0.016833814165515
  73     0.021306355483165
  74    0.0015356159430151
  75    -0.0096787040887424
  76    0.0017550552282535
 Sym= A
 Ene=               9
 Spin= Alpha
 Occup=    1.00000
   1    0.00043538253387096
   2     0.017592852405206
   3    -0.015387816663608
   4     0.022110509733098
   5    0.0045009928168575
   6    0.0057016807019608
   7    0.0090557097719919
   8    0.0016657924426244
   9    -0.0083089035001381
  10     0.004927713768799
  11    -0.011071299347138
  12    -0.00055845255526648
  13    -0.00086693346427416
  14    -0.00020233749221341
  15    0.0031330586209148
  16     -0.13798923617322
  17     0.014821230043361
  18    -0.090172930505198
  19    -0.00043822629218998
  20     -0.27805593571985
  21    -0.024807486459445
  22    6.4794510348834e-05
  23    -0.047397486738158
  24    -0.049069214457176
  25    -0.030117878194306
  26    0.00042339478982732
  27    -0.0055199658673094
  28    -0.00025934562444243
  29    0.0073814945908455
  30     -0.22651206267307
  31      -0.2092392559844
  32      0.13253658639462
  33    -0.00042922892534824
  34      0.44060465303365
  35     0.086464892694761
  36    -2.476585549411e-05
  37      0.28842502839894
  38    -0.017149516844388
  39    -0.010197843092321
  40    -4.9021861564317e-05
  41    -0.0016282270543208
  42    -3.8767661617667e-05
  43     0.017776307518385
  44     0.021496382773159
  45    -0.0015657329990557
  46    -0.0015669735551381
  47    -0.0096617969117393
  48     0.015925008847372
  49     0.016247283559847
  50    -0.0012076386404561
  51    0.0014095666438685
  52    -0.0096802310183228
  53     0.015294212954765
  54     0.030479551819599
  55    0.00093878710248241
  56    0.00021711908864671
  57    4.5663800385408e-05
  58    -0.00035780790654465
  59    -0.0026106236843854
  60    -0.0031579858728012
  61    -0.0054697190258432
  62    0.0044430169174451
  63    -0.0024050415817927
  64    -0.0081434158210743
  65      0.00216921551963
  66    -0.00033913605536722
  67    -5.8571692145269e-05
  68    0.00014129207939066
  69    -0.00029705563024725
  70    0.00033075263984865
  71    -0.000452892716407
  72    -0.013026206161675
  73    -0.019887315254921
  74    0.00053254843045115
  75    -6.9088501687574e-05
  76    0.0017213004111722
 Sym= A
 Ene=              10
 Spin= Alpha
 Occup=    1.00000
   1    5.0048512386078e-05
   2    0.00069190770997522
   3    0.0011643753032354
   4    0.0042553646598323
   5    0.0011758498210858
   6    -0.0081040800512481
   7     0.017104106456953
   8    0.0020417811271455
   9    -0.017667628421086
  10    0.00048094295724571
  11    -0.0043917487632596
  12    -1.3411751342029e-06
  13    -0.0005624707026492
  14    -0.00015062702379695
  15    -0.0065745805341745
  16    -0.068356382372523
  17    -0.033287032569948
  18    -0.030208559560462
  19    0.00048878962904317
  20    -0.094030522766622
  21    0.00031630342710225
  22    9.9296628367879e-05
  23    -0.0067198081705344
  24    -0.0066029305558886
  25    -0.001770298270327
  26    -0.00020933642452224
  27    -0.00024719553730529
  28    8.2854569940795e-06
  29    -0.0021269545485286
  30      0.43769656391766
  31      0.52296882864713
  32       0.1345738750392
  33    -0.0079791777295136
  34       0.2917947761084
  35     0.092858949396433
  36    -0.0058711777606994
  37      0.20206428752326
  38    -0.0067957163980021
  39    -0.0048401195907857
  40    8.4146673172131e-05
  41    -0.00083568278940947
  42    5.5424361029086e-05
  43    -0.0036885093737073
  44      0.01410368432259
  45    -0.0013951168372126
  46    0.00013966207802901
  47    -0.0042241791860811
  48    -0.0022726691268559
  49     0.012708002340494
  50    -0.0012091643406403
  51    -0.00013745195756639
  52    -0.0041741224627525
  53    -0.0003115466155927
  54      0.02587776599422
  55    0.00070560088820039
  56    0.00027151051409154
  57    -0.00027201538088583
  58    0.00012692239573336
  59    -0.00034156141576344
  60    -0.0034220445310677
  61    -0.0019307332301794
  62    0.00061853968023315
  63    0.00085515198133679
  64    -0.0041661776864865
  65    0.00057875835579678
  66    0.0021072711582937
  67    -9.1817245501193e-05
  68    -3.4194478389643e-05
  69    -2.415512363413e-05
  70    6.7203382438535e-05
  71    -0.00018504456107182
  72    -0.0016927718109225
  73    -0.0089989539965825
  74    0.00026211462819281
  75    0.00011456039545218
  76    0.00076054090341159
 Sym= A
 Ene=              11
 Spin= Alpha
 Occup=    1.00000
   1    -0.006573954725552
   2    -0.068863909308509
   3    -0.033578233823682
   4     0.030478816922966
   5    -0.087900055677059