[Molden Format]
made by pyscf v[2.0.1]
[Atoms] (AU)
C   1   6     0.00000000000000     0.00000000000000     0.00000000000000
C   2   6     2.85207482267819     0.00000000000000     0.00000000000000
F   3   9     3.65415199667903     0.00000000000000     2.45977207315200
H   4   1     3.58561868306314    -1.66499644088808    -0.96128614334650
H   5   1     3.58561868306314     1.66499644088808    -0.96128614334650
H   6   1    -0.73354386038494     0.33385117401718     1.89336409366168
F   7   9    -0.80207717400084     1.88429472797734    -1.58111101127508
H   8   1    -0.73354386038494    -1.80662699073290    -0.65755844904870
[GTO]
1 0
 s    8 1.00
                  6665  0.00069158396281299
                  1000  0.0053257961529341
                   228   0.027060721042034
                 64.71    0.10165684614077
                 21.06     0.2745748236174
                 7.495    0.44829431892377
                 2.797    0.28490261071525
                0.5215   0.015194859206082
 s    8 1.00
                  6665  -0.00029326965268655
                  1000  -0.0023180354739745
                   228  -0.011499786038565
                 64.71  -0.046826727009787
                 21.06   -0.12846616875047
                 7.495   -0.30126627246289
                 2.797   -0.25563070233011
                0.5215      1.093793361012
 s    1 1.00
                0.1596                   1
 p    3 1.00
                 9.439   0.056979251590039
                 2.002    0.31320721150073
                0.5456    0.76037674173753
 p    1 1.00
                0.1517                   1
 d    1 1.00
                  0.55                   1

2 0
 s    8 1.00
                  6665  0.00069158396281299
                  1000  0.0053257961529341
                   228   0.027060721042034
                 64.71    0.10165684614077
                 21.06     0.2745748236174
                 7.495    0.44829431892377
                 2.797    0.28490261071525
                0.5215   0.015194859206082
 s    8 1.00
                  6665  -0.00029326965268655
                  1000  -0.0023180354739745
                   228  -0.011499786038565
                 64.71  -0.046826727009787
                 21.06   -0.12846616875047
                 7.495   -0.30126627246289
                 2.797   -0.25563070233011
                0.5215      1.093793361012
 s    1 1.00
                0.1596                   1
 p    3 1.00
                 9.439   0.056979251590039
                 2.002    0.31320721150073
                0.5456    0.76037674173753
 p    1 1.00
                0.1517                   1
 d    1 1.00
                  0.55                   1

3 0
 s    8 1.00
                 14710  0.00072067370873197
                  2207  0.0055504869689163
                 502.8   0.028254207662589
                 142.6    0.10639582836653
                 46.47    0.28668420124307
                  16.7    0.44843796582416
                 6.356    0.26464118141135
                 1.316   0.015326060993048
 s    8 1.00
                 14710  -0.00032119389049893
                  2207  -0.0025461915683188
                 502.8  -0.012643359507821
                 142.6   -0.05195749170489
                 46.47   -0.14344713812646
                  16.7   -0.33243762329603
                 6.356   -0.21865906750347
                 1.316     1.0955904138622
 s    1 1.00
                0.3897                   1
 p    3 1.00
                 22.67   0.064834021493887
                 4.977    0.34053535983101
                 1.347    0.73464640679382
 p    1 1.00
                0.3471                   1
 d    1 1.00
                  1.64                   1

4 0
 s    3 1.00
                 13.01   0.033498726389998
                 1.962    0.23480080117413
                0.4446     0.8136829578829
 s    1 1.00
                 0.122                   1
 p    1 1.00
                 0.727                   1

5 0
 s    3 1.00
                 13.01   0.033498726389998
                 1.962    0.23480080117413
                0.4446     0.8136829578829
 s    1 1.00
                 0.122                   1
 p    1 1.00
                 0.727                   1

6 0
 s    3 1.00
                 13.01   0.033498726389998
                 1.962    0.23480080117413
                0.4446     0.8136829578829
 s    1 1.00
                 0.122                   1
 p    1 1.00
                 0.727                   1

7 0
 s    8 1.00
                 14710  0.00072067370873197
                  2207  0.0055504869689163
                 502.8   0.028254207662589
                 142.6    0.10639582836653
                 46.47    0.28668420124307
                  16.7    0.44843796582416
                 6.356    0.26464118141135
                 1.316   0.015326060993048
 s    8 1.00
                 14710  -0.00032119389049893
                  2207  -0.0025461915683188
                 502.8  -0.012643359507821
                 142.6   -0.05195749170489
                 46.47   -0.14344713812646
                  16.7   -0.33243762329603
                 6.356   -0.21865906750347
                 1.316     1.0955904138622
 s    1 1.00
                0.3897                   1
 p    3 1.00
                 22.67   0.064834021493887
                 4.977    0.34053535983101
                 1.347    0.73464640679382
 p    1 1.00
                0.3471                   1
 d    1 1.00
                  1.64                   1

8 0
 s    3 1.00
                 13.01   0.033498726389998
                 1.962    0.23480080117413
                0.4446     0.8136829578829
 s    1 1.00
                 0.122                   1
 p    1 1.00
                 0.727                   1

[5d]
[7f]
[9g]

[MO]
 Sym= A
 Ene=               0
 Spin= Alpha
 Occup=    1.00000
   1       1.0021162976023
   2     0.004934213469935
   3    -0.0085697386370285
   4    -0.00033814938018236
   5    0.00051139013930421
   6    -0.00055382217297442
   7    -0.0011811515863541
   8    0.0003692216142738
   9    -0.00033584776587122
  10    6.2723973825454e-05
  11    9.8415184643004e-06
  12    -1.9278317813582e-05
  13    -0.00016080754037267
  14    2.9727935152032e-05
  15    -0.00019220652113805
  16    8.4092249486509e-05
  17    0.0028407372082995
  18    -0.00037937645799154
  19    8.4549613161743e-06
  20    4.7861247320178e-06
  21    -0.0014327628580527
  22    -0.00019548608365487
  23    0.00015290351045172
  24    3.0725039128894e-05
  25    -7.0925542021524e-05
  26    -1.5054276726228e-06
  27    -4.5605769498313e-05
  28    8.9264964964543e-05
  29    -9.5538789833672e-06
  30    -1.1523276233201e-05
  31    -0.00013254356294081
  32    3.0933878684533e-06
  33    -1.9810835039849e-06
  34    1.1487985212773e-05
  35    -3.6446338039309e-05
  36    1.5216157290998e-06
  37    1.856574586769e-06
  38    -2.5664074219734e-06
  39    8.1896805090441e-06
  40    8.7680034355894e-07
  41    2.8675456952753e-05
  42    4.4509083335852e-07
  43    -9.4453543798904e-05
  44    2.1538853190009e-05
  45    -4.6838514990545e-05
  46    3.9357481810566e-05
  47    1.2186130025896e-05
  48    -7.1202243083408e-05
  49    0.00037739715031837
  50    -0.00010774918238849
  51    -1.5606234125352e-05
  52    6.6073465654628e-06
  53    0.00068605930525576
  54    0.0014282213112091
  55    4.8400513534456e-05
  56    -4.8171220077379e-05
  57    0.0001769807158319
  58    0.00016003620764607
  59    0.00067108994428611
  60    3.6494111538896e-05
  61    9.8064008036366e-05
  62    -0.00027101218799251
  63    0.00022633361270132
  64    -0.00016756825089494
  65    0.00059931489104827
  66    -0.00050072351847017
  67    -8.6847418885946e-06
  68    -7.4745878324431e-05
  69    0.00017227555605676
  70    7.859310591355e-05
  71    8.8049691888064e-05
  72    0.00060990880444862
  73    0.0014102844205144
  74    2.3749004765493e-05
  75    -0.00024506889921566
  76    -7.1753064495686e-07
 Sym= A
 Ene=               1
 Spin= Alpha
 Occup=    1.00000
   1    -0.00019214785710632
   2    8.363877393419e-05
   3    0.0028405650038984
   4    0.00038011676616116
   5    8.8434996320593e-06
   6    2.384651260349e-06
   7     0.001433087567069
   8    -8.6074052163472e-06
   9    -0.00024848512601246
  10    2.8110319873344e-05
  11    -0.00011389154708759
  12    -4.037718944434e-06
  13    -4.713718380972e-05
  14    -3.0380611788999e-06
  15       1.0021163946464
  16    0.0049324478349561
  17    -0.0085707084845198
  18     0.000336759618842
  19    -9.5531454218134e-05
  20    0.00074898598286157
  21    0.0011805824698885
  22    -1.9963322934495e-05
  23    0.00049926315943355
  24    0.00010573002516072
  25    -1.6353223267855e-05
  26    2.233666916174e-05
  27    -0.00013592142769716
  28    -2.6624953414908e-05
  29    0.00016005707844946
  30    0.00067114902418837
  31    3.6592100867508e-05
  32    -9.8106510480933e-05
  33    -8.1046992685748e-07
  34    -0.00035324429259591
  35    0.00016761782023493
  36    1.6671600714973e-06
  37    0.00078080044424472
  38    -0.0001879388673196
  39    -0.00011548411407811
  40    -1.3777316003863e-06
  41    -2.487724859928e-05
  42    6.6199938745344e-07
  43    0.00060805097641297
  44    0.0014097696416264
  45    -2.3713267768192e-05
  46    -0.00015824563094398
  47    -0.0001873296783046
  48    0.00068426939995991
  49    0.0014277883713654
  50    -4.8368873713552e-05
  51    0.00010478661585145
  52    -0.00015072043909019
  53    -7.2600023390838e-05
  54    0.0003768277154203
  55    0.00010771932295228
  56    -4.9475287141069e-06
  57    -1.61037425578e-05
  58    -9.5458214988557e-06
  59    -1.1493149455888e-05
  60    -0.00013251624306756
  61    -3.065688920823e-06
  62    7.4931193482405e-06
  63    -8.836120101712e-06
  64    3.6425836805374e-05
  65    2.4097759601922e-06
  66    7.0119028094206e-08
  67    -1.5642515951051e-05
  68    4.926984786319e-06
  69    -1.1768687482379e-05
  70    2.1133843708767e-05
  71    -6.5688165565861e-06
  72    -9.4396046766314e-05
  73    2.1628132533776e-05
  74    4.6863536391171e-05
  75    3.461415836518e-05
  76    2.2283702199027e-05
 Sym= A
 Ene=               2
 Spin= Alpha
 Occup=    1.00000
   1     4.07865224758e-05
   2    4.2637598967663e-05
   3    -0.0010870493959568
   4    -0.00011864033328375
   5    1.7235332309295e-05
   6    3.1963217288178e-05
   7    -0.00046421479809338
   8    -0.00012958799959516
   9    -0.00041069043882615
  10    8.8989072655328e-05
  11    -3.0933940315526e-05
  12    1.3644165245698e-05
  13    8.6541298457387e-06
  14    -1.386507809548e-05
  15    -0.00017455797176568
  16    0.00021150989394289
  17    0.0029745007512741
  18    0.00032786590374642
  19    -1.9266507930582e-06
  20    0.00083587679638985
  21    -4.2551989654015e-05
  22    4.1815392440884e-05
  23    0.0014020275262962
  24    0.00014641945518358
  25    7.5286636857215e-05
  26    3.1649715497672e-06
  27    1.9466168545416e-05
  28    -9.5653056635846e-06
  29       1.0009635707439
  30    0.00095240913750547
  31    -0.0050413244120918
  32    -0.00068629611321615
  33    5.7528334133835e-05
  34    -0.0019023460217282
  35    0.00018774654003038
  36    4.2941985643803e-05
  37    0.00070239695272521
  38    -0.00014402087195995
  39    -7.671612797192e-05
  40    -2.4056389198597e-06
  41    -4.1277661677906e-06
  42    -1.1837740492637e-06
  43    -0.00025630130586498
  44    -0.00010146077389634
  45    -4.9957578713504e-06
  46    -7.656967451203e-06
  47    -0.00015722128477244
  48    -0.00026040744275521
  49    -0.00015690043044701
  50    -3.3590717558586e-06
  51    5.7188393390877e-06
  52    -0.00015883655131467
  53    4.0277161946476e-05
  54    0.0001767161153449
  55    -2.9092639502335e-05
  56    6.7988396404025e-06
  57    -1.0183572144824e-06
  58    -1.394453960576e-05
  59    -2.1157108248241e-05
  60    0.00010734265067745
  61    3.1839027313935e-06
  62    -1.0826820439251e-05
  63    7.9898829717637e-06
  64    8.8478060500607e-05
  65    8.6283475175286e-07
  66    4.9156626633675e-05
  67    1.2750383176561e-05
  68    1.3648077730501e-06
  69    -5.6994743286324e-06
  70    4.0241139602649e-06
  71    -1.7003910530101e-06
  72    8.0246665475186e-05
  73    -0.00011310261618962
  74    7.5879624248385e-06
  75    5.441957890879e-06
  76    3.9618483799976e-05
 Sym= A
 Ene=               3
 Spin= Alpha
 Occup=    1.00000
   1    -0.00017456508859267
   2    0.00021309068851431
   3    0.0029752728718769
   4    -0.00032873050402885
   5    0.00063842918644763
   6    -0.00053800173446281
   7    4.1547251438265e-05
   8    0.0011008522026311
   9    -0.00086895876010279
  10    4.642154083703e-06
  11    5.6062300369457e-05
  12    -0.00013364021093413
  13    -6.1954885170185e-05
  14    -5.2067160797277e-05
  15    4.0804796895759e-05
  16    4.2445454096194e-05
  17    -0.0010857198528474
  18    0.00011740901416395
  19    3.3977103387197e-05
  20    -6.8347851230161e-06
  21    0.00046353894690097
  22    -0.00039852974096961
  23    0.00016516784013175
  24    -5.4032779209806e-06
  25    -9.259239824845e-06
  26    -7.7680080144492e-05
  27    -4.5740904477404e-05
  28    3.2558499993159e-05
  29    -1.391782693352e-05
  30    -2.1162149969141e-05
  31    0.00010702114065104
  32    -3.0551051136088e-06
  33    -8.3861727211989e-07
  34    -1.3288680714495e-05
  35    -8.8302978264114e-05
  36    3.8353463192717e-05
  37    -3.0748768750625e-05
  38    4.3243190268166e-06
  39    2.1947625110523e-06
  40    -1.3824313017129e-05
  41    -8.2115665254776e-07
  42    5.3775587540171e-08
  43    8.065100719224e-05
  44    -0.00011301889123733
  45    -7.6799713825879e-06
  46    3.3830306459291e-05
  47    -2.1307257305038e-05
  48    3.8565744458945e-05
  49    0.00017563360414387
  50    2.9255578507252e-05
  51    3.6717599829331e-06
  52    5.8289850832535e-06
  53    -0.00025970281604881
  54    -0.00015737895917491
  55    3.4304548901954e-06
  56    -0.00011807246173852
  57    0.00010636011867254
  58       1.0009635978039
  59    0.00095191001237898
  60    -0.005042181377072
  61    0.00067294402678277
  62    -0.0014215968841252
  63    0.0012723376588667
  64    -0.00019715372963801
  65    0.00056485479607856
  66    -0.0004147911611303
  67    -1.2980411770078e-05
  68    -4.8526483138679e-05
  69    0.00012433655425213
  70    7.134212783935e-05
  71    5.9714172067288e-05
  72    -0.0002554192062895
  73    -0.00010157989403142
  74    5.0674004053382e-06
  75    -0.00012525802111717
  76    9.5274445444577e-05
 Sym= A
 Ene=               4
 Spin= Alpha
 Occup=    1.00000
   1    -0.00021299452459147
   2    -0.021179520864564
   3    -0.057137077840791
   4    -0.026880978690573
   5    -0.0069093211024637
   6    -0.009946799488756
   7    -0.0064269395881323
   8    -0.0071697025056235
   9    -0.0056638940042713
  10    0.00066586805658305
  11    -0.00051222623642259
  12    0.0003809049829949
  13    -0.00041086885479965
  14    -0.0017904989212474
  15    -0.0010996335255057
  16    -0.0038466115654363
  17    -0.0096611145229183
  18    0.00039216070582577
  19    -0.0060641120483606
  20    -0.0041404421753261
  21    -0.016718047758292
  22     0.023215811939487
  23    -0.0067083807542076
  24      0.01085041217762
  25    -0.017085844864661
  26     0.028066323332577
  27    -0.0088626122628306
  28    0.0064156343058058
  29    -0.0011499319339156
  30     0.027291862804335
  31     0.040883254909448
  32     -0.38202047263491
  33      0.52816403449265
  34      0.13534818672685
  35     -0.27122193975201
  36      0.37403835003776
  37     0.093502633491286
  38    -0.0041186218102079
  39    0.0060554094528102
  40    -0.009325497899005
  41    0.0024022859549606
  42    -0.0034908840653518
  43     0.059978963872409
  44      0.05937205501768
  45    0.00054761042849986
  46    -0.0005560526153936
  47    0.0020284374436818
  48    -0.026319658946205
  49    -0.024280910197319
  50    0.0012993130473101
  51    -0.00074259702399398
  52    -0.00095602719280817
  53    -0.0085806608886275
  54     0.026771621101868
  55     0.003226157563717
  56    0.0007271715829952
  57    0.0015613322898118
  58    0.00031939062392077
  59    0.0033474808034559
  60    0.0080181574317385
  61    0.0062708621211709
  62    -0.003176754451715
  63    0.0042806628454753
  64    0.0022921189717737
  65    -0.004428274770275
  66    0.0048194927700497
  67    2.4084513740117e-05
  68    -0.00039423960181683
  69    -8.2408570661552e-06
  70    -0.00052311023059473
  71    0.00033771104743374
  72    0.0086242120496539
  73    0.0087212067598888
  74    -0.00059990591317697
  75    0.0011576693262435
  76    -0.00037195663697873
 Sym= A
 Ene=               5
 Spin= Alpha
 Occup=    1.00000
   1    8.8018182717629e-05
   2     0.026801205191816
   3     0.075514120447576
   4     0.035119881045552
   5    0.0026832276384112
   6    0.0098191306180798
   7     0.026747560090248
   8    0.0076060521134375
   9    -0.0080379359621748
  10    -0.0013311719767084
  11    0.00066722854829333
  12    0.0010809684984481
  13    0.00063167414224486
  14    -0.001140225291439
  15    0.0021624174216938
  16    0.0021550721502929
  17      -0.0122874830733
  18    -0.00029836894343765
  19    -0.0048912747562768
  20    0.0019992914787438
  21     0.029087396735724
  22     0.013949419833179
  23    0.0085217325974073
  24    -0.014215968796854
  25     0.021775901906041
  26     0.022185921298317
  27     0.011129004926402
  28    0.0048122486619019
  29    0.0012859994320356
  30    -0.0096214111727294
  31    -0.021329145330292
  32      0.50163068823722
  33      0.40652858713808
  34      -0.1630300670674
  35      0.35592380260089
  36      0.28908591193073
  37     -0.11347677003387
  38    0.0052410999576078
  39    -0.0081029116644629
  40    -0.0071341357443681
  41    -0.0029662718394059
  42    -0.002908730250876
  43     0.012229950039675
  44     0.013745986470723
  45    -0.0018305583062754
  46    -0.00070767738213838
  47    0.00028521209076707
  48    -0.055061315982823
  49    -0.053935938517509
  50    -0.00097774788478308
  51    -9.6645263523151e-05
  52    -0.0020325048354832
  53     0.013190571629386
  54    -0.015439495991623
  55    -0.0029503236436485
  56    0.00061313442464492
  57    -0.0024071578697144
  58    0.0012609035839729
  59    -0.00018131433620418
  60    -0.014611901126602
  61    -0.0036482790848029
  62    0.0054527339854343
  63    -0.0061129197231611
  64    -0.0061918141555028
  65    0.0085413519448357
  66    -0.0066039716033159
  67    0.00014212439159611
  68    0.0003042141386126
  69    0.00016241766155022
  70    0.00029241454073404
  71    -0.00037896766797461
  72    -0.0058980313179603
  73     -0.01183989975158
  74    0.0028981403556017
  75    -0.00084056350660029
  76     0.001367949368941
 Sym= A
 Ene=               6
 Spin= Alpha
 Occup=    1.00000
   1    -0.0021332173940398
   2    -0.0028533674490678
   3     0.010861172502231
   4    2.8895969926107e-05
   5    0.00097492471444528
   6    0.0017919885248986
   7     0.030885725034128
   8    -0.014672220694148
   9    -0.0039114012586096
  10     0.024221374684288
  11    -0.011767780361354
  12    -0.010555556190742
  13    -0.0067616040014419
  14     0.020566447637968
  15    -0.00010930220010932
  16    -0.028475557877598
  17    -0.080557171176892
  18     0.037643068775891
  19    -0.010463681417012
  20    0.0039924281343741
  21     0.027336872219493
  22    0.00049546890210667
  23    -0.011262190214575
  24    0.0013975312489626
  25    -0.0010623089320001
  26    -0.0010349621508999
  27    -0.0007005819923479
  28    -6.1868993697208e-05
  29    -0.0012159578592449
  30    0.00054760606068633
  31     0.015427507311464
  32    -0.0043506838934027
  33    0.0012903119908315
  34    -0.0086428926771672
  35    -0.0064937036587603
  36    -0.00035345436874256
  37    -0.011396659964214
  38    0.00030032382088868
  39    -0.00053536869085054
  40    0.00026074660281426
  41    -9.9374796453611e-05
  42    -9.092377591305e-07
  43    0.0069707650185786
  44     0.012690119951121
  45    0.0029266413888924
  46    -0.00043023762674381
  47    0.0016394978226827
  48    -0.013833175228983
  49     0.017732666641722
  50    -0.0032578134715548
  51    0.0015925244503903
  52    -0.0020513979369173
  53     0.049444460570736
  54     0.050266963280687
  55    -0.0012040466932061
  56    0.0015642729455717
  57    -0.0010567499145219
  58    -0.001341369283519
  59    0.0071764665353997
  60     0.019191490962172
  61       0.5388400035138
  62    -0.094075314097337
  63     -0.37979358223638
  64      0.38225657263068
  65    -0.068963393011846
  66     -0.26835065534705
  67    -0.0075798349049588
  68    0.0036576867203408
  69    0.0042381885479433
  70    0.0020392143892804
  71    -0.0083291315615059
  72    -0.0056247178523396
  73    -0.0075394652410971
  74    -0.0018523769010091
  75    0.00038661363854561
  76    0.00045972153017242
 Sym= A
 Ene=               7
 Spin= Alpha
 Occup=    1.00000
   1    -0.00081716006534376
   2    -0.0041424628081629
   3    -0.011123059798347
   4    3.0363408494409e-05
   5    -0.0041459777681393
   6    -0.00039223585320188
   7     0.013902974968579
   8     0.012333120566833
   9     0.023376013926409
  10    -0.020558556563086
  11    -0.014862591719788
  12    0.00092705000645543
  13    -0.024963582104129
  14    0.0068226777392838
  15    -0.00020390643453371
  16    -0.017900438241353
  17    -0.048976356942343
  18      0.02341321952483
  19    -0.011171736886081
  20    0.00050767486311264
  21    0.0039075581345737
  22    -0.0090163228812016
  23    -0.00087756591997332
  24    -0.00017807675465547
  25    0.0010505294483809
  26    -0.00018252272972063
  27    -0.00077475955885127
  28    0.0014055018729495
  29    0.00043374734956959
  30    0.0032640030126677
  31     0.006401420872455
  32    -0.0057922212705497
  33    0.0011276097984341
  34    -0.0042225800482551
  35    -0.0016067285228628
  36    0.00088396763061863
  37    -0.0052753091511647
  38    0.00025123167270215
  39    -0.00046171284687311
  40    0.0002136132814006
  41    -0.00036680558048641
  42    8.3016677888071e-05
  43    0.0086448276403292
  44    0.0078919187886943
  45     0.000291851236139
  46    0.00052897876218687
  47    0.00098324878964028
  48    -0.007067857668965
  49     0.024805157125139
  50    -0.0029159395370447
  51     0.001478429821091
  52    -0.00023410188893333
  53    -0.029902492404548
  54     -0.02882584676092
  55    -0.0011195759493191
  56    -0.0013076684594588
  57    9.2046382544275e-05
  58    -0.00099488690436775
  59     0.024582914591805
  60     0.036621189659772
  61      0.33054540675255
  62      0.45358722448944
  63      0.35844068193476
  64      0.23465805061867
  65      0.31951937865168
  66       0.2551375598376
  67    0.0070745264911411
  68    0.0062616115500641
  69    0.00025435645731749
  70    0.0082382383601735
  71    -0.0015866444772564
  72     0.057509042649215
  73     0.059155455350758
  74    -0.00049189720106342
  75    0.00097654320984292
  76    -0.001854417438382
 Sym= A
 Ene=               8
 Spin= Alpha
 Occup=    1.00000
   1    0.0031954812702326
   2     -0.13864677128147
   3     0.016637272087597
   4     0.090761573688886
   5     -0.21215577591839
   6      0.17834248731331
   7     0.025883678505461
   8     -0.03342183630772
   9     0.031155328242332
  10    -0.0040130173420117
  11    -0.018555091574164
  12     0.044760729444308
  13     0.020723088499351
  14     0.023236911820214
  15    0.00048292307754964
  16     0.019289750783654
  17    -0.015564222160664
  18    -0.021535091470968
  19    0.0079255073447877
  20    0.0043346536653148
  21    -0.0063592489543457
  22    -0.0087084740895244
  23    0.0051786376132218
  24    -5.8835816695355e-05
  25    -0.0066836988242893
  26    -0.0035729160266243
  27    -0.0034927821106129
  28    0.0087488833631268
  29    -0.00048595750642216
  30    -0.0037227090612139
  31    -0.0053487495577752
  32    0.0078296759145585
  33    -0.0010494570777544
  34    0.0086564751329485
  35    0.0091427438302449
  36    0.00089284890885415
  37    0.0045392577000132
  38    -0.00011703670920017
  39    0.00038420293686975
  40    -0.00034366419811943
  41    0.00031885021655298
  42    -5.9468908791245e-05
  43    -0.0083374437957643
  44    -0.018285519687641
  45    -0.0010153424874461
  46    0.0014437291000159
  47    -0.00029993959379438
  48     0.015928124759459
  49     0.030359220977377
  50    -0.0010538969107894
  51    0.00033550272787315
  52    0.00068257665192066
  53     0.014595392252597
  54     0.014422249316747
  55    0.0011435020270633
  56    -0.0065173240487655
  57    0.0072569229427389
  58    0.0075139187569434
  59     -0.22648578063966
  60     -0.21039153833843
  61     -0.13330734905674
  62      0.33813254489895
  63     -0.28178790901524
  64    -0.087303608557221
  65      0.22157070145606
  66     -0.18438222800286
  67    -0.0011074070562862
  68    -0.0065110654277126
  69     0.015398140180803
  70    0.0075757437830477
  71    0.0079286824555128
  72     0.016898831111547
  73     0.022604611960499
  74    0.0015818727366253
  75    -0.0085926873497038
  76    0.0049288889729298
 Sym= A
 Ene=               9
 Spin= Alpha
 Occup=    1.00000
   1    0.0004738032386247
   2     0.019095164723864
   3    -0.015766312813772
   4      0.02148410988015
   5    0.0074448802166774
   6    0.0019854595835183
   7    0.0063370841861487
   8    -0.0019871622654542
   9    -0.010475737095399
  10    0.0047414686733111
  11      -0.0109797152492
  12    0.0011609515196154
  13    -0.00069623051692432
  14      -0.0004818536614
  15    0.0031532758643911
  16     -0.13781412825671
  17     0.017131256555504
  18    -0.090205360936955
  19    -3.1524046645903e-05
  20     -0.27783570023294
  21    -0.025703589886858
  22    0.0022738039597287
  23    -0.045869302123399
  24    -0.049212984287134
  25    -0.029682920089727
  26     0.000996364184286
  27    -0.0054087940129723
  28    -0.0006843056657446
  29    0.0075101914231948
  30     -0.22649751545707
  31     -0.21038844196531
  32      0.13343302859652
  33    0.0014180280340551
  34      0.44013358394597
  35     0.087348715073182
  36    0.0011528111154366
  37      0.28826722754083
  38    -0.017100122874852
  39    -0.010266090044205
  40    -0.00010706027546825
  41    -0.0016736803417076
  42    -0.00010622508339702
  43     0.017850467284223
  44     0.022766193641119
  45    -0.0016104850795902
  46    -0.0016538394175985
  47    -0.0097173490350366
  48     0.015261523145745
  49     0.014599922737374
  50    -0.0011558192735222
  51    0.0012967316872625
  52    -0.0096389459622599
  53      0.01469914115397
  54     0.030001417670476
  55    0.0010017888799312
  56    0.00073584513676009
  57    -0.00010791726104393
  58    -0.00048564363771589
  59    -0.0037178511462464
  60    -0.0053371576614703
  61    -0.0078315904625737
  62    0.0059793499729384
  63    -0.0063147227084755
  64    -0.009146870750377
  65    0.0041251094954408
  66    -0.0021097794472056
  67    9.6493152118373e-05
  68    0.00028705036866824
  69    -0.00011222738509363
  70    0.00044333298117988
  71    -0.00025876768316688
  72    -0.0072900233065776
  73    -0.017850106020216
  74    0.0010558892134178
  75    0.00075281349246413
  76    0.0012972624937205
 Sym= A
 Ene=              10
 Spin= Alpha
 Occup=    1.00000
   1    0.00019206672071957
   2    0.0009687054236063
   3    -0.00028599253893336
   4    0.0040252804793346
   5    0.00080729965398047
   6    -0.0084750862842857
   7      0.01438832811026
   8    -0.0049010644212309
   9    -0.017733651156732
  10    0.00046856870043726
  11    -0.0043374659871378
  12    0.00017760460554557
  13    -0.00055718621536124
  14    7.4873306891433e-06
  15    -0.0066338780691554
  16    -0.068308095388054
  17    -0.030573658728731
  18    -0.030307911046506
  19    0.00079423405307064
  20    -0.094050355104315
  21    -0.001005120275595
  22    0.0013197354115719
  23    -0.0059315740544831
  24    -0.0066525858968253
  25    -0.0018089093566329
  26    -0.00085000162823387
  27    -0.0002237258219244
  28    -0.00047343328951539
  29    -0.0019602472460999
  30      0.43758867257034
  31      0.52211155018113
  32      0.13204120783498
  33    -0.022474393407328
  34      0.29288588454837
  35     0.091097253336629
  36     -0.01633028021606
  37      0.20296428621464
  38    -0.006814227272742
  39    -0.0048319993363263
  40    0.00032748673208749
  41    -0.00083922657112968
  42    0.00013791576189554
  43    -0.0046923549364588
  44      0.01363334919269
  45    -0.0013284281162235
  46    9.5271598567652e-05
  47    -0.0042932179676169
  48    -0.0010752729827072
  49     0.013476677655234
  50    -0.0012807402698367
  51    -0.00021212629518865
  52    -0.0041140552288942
  53    -0.00042113434821662
  54     0.025461629479165
  55    0.00077087131889089
  56    0.0001105681226499
  57    -0.00031503676400783
  58    -0.00016222823964779
  59    -0.0012577042571909
  60    -0.0032018914383011
  61    -0.0030012971778146
  62    0.0013262923477221
  63    -0.00013597411258628
  64    -0.0039036277319444
  65    0.0015675949651346
  66    0.0016173138424071
  67    -8.0769663133084e-05
  68    8.8358071226385e-05
  69    -8.4484386099143e-05
  70    0.00011737053975033
  71    -0.000192954810881
  72    -0.0013680424255644
  73    -0.0094339816271451
  74    -4.2521020950192e-07
  75    0.00015589124585137
  76    0.00037649098911224
 Sym= A
 Ene=              11
 Spin= Alpha
 Occup=    1.00000
   1    -0.0066441312759968
   2    -0.068832288937811
   3    -0.030785496474851
   4     0.030580567907457
   5    -0.071346237890237
   6     0.060787379283344