[Molden Format]
made by pyscf v[2.0.1]
[Atoms] (AU)
C   1   6     0.00000000000000     0.00000000000000     0.00000000000000
C   2   6     2.85207482267819     0.00000000000000     0.00000000000000
F   3   9     3.65415199667903     0.00000000000000     2.45977207315200
H   4   1     3.58561868306314    -1.66499644088808    -0.96128614334650
H   5   1     3.58561868306314     1.66499644088808    -0.96128614334650
H   6   1    -0.73354386038494    -1.23580564461298     1.47277581671572
F   7   9    -0.80207717400084     2.42240260828301     0.42713493797885
H   8   1    -0.73354386038494    -0.65755844904870    -1.80662699073290
[GTO]
1 0
 s    8 1.00
                  6665  0.00069158396281299
                  1000  0.0053257961529341
                   228   0.027060721042034
                 64.71    0.10165684614077
                 21.06     0.2745748236174
                 7.495    0.44829431892377
                 2.797    0.28490261071525
                0.5215   0.015194859206082
 s    8 1.00
                  6665  -0.00029326965268655
                  1000  -0.0023180354739745
                   228  -0.011499786038565
                 64.71  -0.046826727009787
                 21.06   -0.12846616875047
                 7.495   -0.30126627246289
                 2.797   -0.25563070233011
                0.5215      1.093793361012
 s    1 1.00
                0.1596                   1
 p    3 1.00
                 9.439   0.056979251590039
                 2.002    0.31320721150073
                0.5456    0.76037674173753
 p    1 1.00
                0.1517                   1
 d    1 1.00
                  0.55                   1

2 0
 s    8 1.00
                  6665  0.00069158396281299
                  1000  0.0053257961529341
                   228   0.027060721042034
                 64.71    0.10165684614077
                 21.06     0.2745748236174
                 7.495    0.44829431892377
                 2.797    0.28490261071525
                0.5215   0.015194859206082
 s    8 1.00
                  6665  -0.00029326965268655
                  1000  -0.0023180354739745
                   228  -0.011499786038565
                 64.71  -0.046826727009787
                 21.06   -0.12846616875047
                 7.495   -0.30126627246289
                 2.797   -0.25563070233011
                0.5215      1.093793361012
 s    1 1.00
                0.1596                   1
 p    3 1.00
                 9.439   0.056979251590039
                 2.002    0.31320721150073
                0.5456    0.76037674173753
 p    1 1.00
                0.1517                   1
 d    1 1.00
                  0.55                   1

3 0
 s    8 1.00
                 14710  0.00072067370873197
                  2207  0.0055504869689163
                 502.8   0.028254207662589
                 142.6    0.10639582836653
                 46.47    0.28668420124307
                  16.7    0.44843796582416
                 6.356    0.26464118141135
                 1.316   0.015326060993048
 s    8 1.00
                 14710  -0.00032119389049893
                  2207  -0.0025461915683188
                 502.8  -0.012643359507821
                 142.6   -0.05195749170489
                 46.47   -0.14344713812646
                  16.7   -0.33243762329603
                 6.356   -0.21865906750347
                 1.316     1.0955904138622
 s    1 1.00
                0.3897                   1
 p    3 1.00
                 22.67   0.064834021493887
                 4.977    0.34053535983101
                 1.347    0.73464640679382
 p    1 1.00
                0.3471                   1
 d    1 1.00
                  1.64                   1

4 0
 s    3 1.00
                 13.01   0.033498726389998
                 1.962    0.23480080117413
                0.4446     0.8136829578829
 s    1 1.00
                 0.122                   1
 p    1 1.00
                 0.727                   1

5 0
 s    3 1.00
                 13.01   0.033498726389998
                 1.962    0.23480080117413
                0.4446     0.8136829578829
 s    1 1.00
                 0.122                   1
 p    1 1.00
                 0.727                   1

6 0
 s    3 1.00
                 13.01   0.033498726389998
                 1.962    0.23480080117413
                0.4446     0.8136829578829
 s    1 1.00
                 0.122                   1
 p    1 1.00
                 0.727                   1

7 0
 s    8 1.00
                 14710  0.00072067370873197
                  2207  0.0055504869689163
                 502.8   0.028254207662589
                 142.6    0.10639582836653
                 46.47    0.28668420124307
                  16.7    0.44843796582416
                 6.356    0.26464118141135
                 1.316   0.015326060993048
 s    8 1.00
                 14710  -0.00032119389049893
                  2207  -0.0025461915683188
                 502.8  -0.012643359507821
                 142.6   -0.05195749170489
                 46.47   -0.14344713812646
                  16.7   -0.33243762329603
                 6.356   -0.21865906750347
                 1.316     1.0955904138622
 s    1 1.00
                0.3897                   1
 p    3 1.00
                 22.67   0.064834021493887
                 4.977    0.34053535983101
                 1.347    0.73464640679382
 p    1 1.00
                0.3471                   1
 d    1 1.00
                  1.64                   1

8 0
 s    3 1.00
                 13.01   0.033498726389998
                 1.962    0.23480080117413
                0.4446     0.8136829578829
 s    1 1.00
                 0.122                   1
 p    1 1.00
                 0.727                   1

[5d]
[7f]
[9g]

[MO]
 Sym= A
 Ene=               0
 Spin= Alpha
 Occup=    1.00000
   1       1.0021134631965
   2    0.0049204279826394
   3    -0.008564085356319
   4    -0.00036737730009442
   5    0.00071146611184478
   6    5.0504336554756e-05
   7    -0.0012045377203561
   8    0.00044204845749002
   9    -1.1895622598095e-05
  10    7.6786818253051e-05
  11    1.060179992384e-05
  12    2.5202120411726e-05
  13    -0.00015416471135017
  14    1.1223784669002e-05
  15    -0.00018919549456984
  16    8.4509284066119e-05
  17     0.002823739205672
  18    -0.0003866058284294
  19    6.8416144955462e-06
  20    -6.8082896963245e-06
  21    -0.0014606482052148
  22    -0.00013810289897675
  23    0.00017350466998688
  24    2.484632337251e-05
  25    2.4785125920369e-05
  26    -5.86789972165e-06
  27    -3.755617400052e-05
  28    0.00011204001908228
  29    -5.4624086223392e-06
  30    4.6480915233597e-07
  31    -0.00015242862582581
  32    -9.2951412765767e-06
  33    -7.6262295682799e-06
  34    3.2391864474251e-07
  35    -5.9179946433183e-05
  36    4.4941885253515e-05
  37    3.9214486516229e-05
  38    -1.0588669972507e-05
  39    1.0817239409758e-05
  40    1.8887238684943e-06
  41    3.1041931100256e-05
  42    -3.9921900906286e-06
  43    -6.4245711651196e-05
  44    0.00010255459611026
  45    -5.4348949125127e-05
  46    5.9018933606379e-05
  47    1.9574049772155e-05
  48    -6.7310107204384e-05
  49    0.00033874901575446
  50    -9.6079808760993e-05
  51    -2.4191175928972e-05
  52    1.9437918283315e-06
  53    0.00067587663912638
  54    0.0014196098982898
  55    4.2348468854986e-05
  56    -0.0001745150042642
  57    9.6141218635635e-05
  58    0.00015245065700341
  59    0.00065588239989429
  60    8.1491044057969e-05
  61    9.8306998943487e-05
  62    -0.00034863869440537
  63    -6.6620694116606e-05
  64    -0.00015786999312616
  65    0.00075651538317684
  66    0.00015538901097738
  67    0.00010501197985858
  68    1.9741706105809e-05
  69    -6.1016276929889e-05
  70    0.00014338658911468
  71    0.00011123000551358
  72    0.00059652199924016
  73    0.0013711739596358
  74    2.9501338425209e-05
  75    -0.00015288086360723
  76    -0.00019132122878888
 Sym= A
 Ene=               1
 Spin= Alpha
 Occup=    1.00000
   1    -0.00018915927089518
   2    8.4552415549785e-05
   3    0.0028238570852262
   4    0.00038699315361576
   5    -7.4341004846965e-06
   6    4.0348130929118e-06
   7    0.0014608664959723
   8    0.0001950477605591
   9    -0.00010650107994312
  10    1.8551012565297e-05
  11    -0.00011454276410251
  12    -4.5063360982987e-06
  13    -4.1224945012808e-05
  14    -4.9308181609645e-06
  15       1.0021135531746
  16    0.0049186087536712
  17    -0.0085650953867867
  18    0.00036605429494871
  19    -7.3084464531245e-05
  20    0.00071058985497857
  21    0.0012040535281855
  22    -8.8198121686621e-05
  23    0.00043372058309877
  24    0.00010208774360712
  25    -1.2769730165181e-05
  26    2.0041789130801e-05
  27    -0.00013949192382844
  28    -8.4852011869219e-06
  29    0.00015246795260331
  30    0.0006559146256636
  31    8.161907993876e-05
  32    -9.8351346679875e-05
  33    -5.062849867941e-06
  34    -0.00035504743144732
  35    0.00015789392536694
  36    2.1616305775295e-05
  37    0.0007718469015917
  38    -0.00018629252457076
  39    -0.00011295976995283
  40    -1.7223237476812e-06
  41    -2.477483568265e-05
  42    -1.3073184246169e-07
  43    0.00059419595848647
  44    0.0013705157894897
  45    -2.9442937910365e-05
  46    -0.00016205638379086
  47    -0.00018385523450176
  48    0.0006745597233574
  49    0.0014192485606043
  50    -4.2328036618783e-05
  51    0.00012513491920834
  52    -0.00015520345275262
  53    -6.8658347333228e-05
  54    0.00033819442268848
  55    9.6042991824165e-05
  56    6.0580513165889e-06
  57    -2.3433530935306e-05
  58    -5.4591142990886e-06
  59    4.6436609672671e-07
  60    -0.00015248522270541
  61    9.2899443884081e-06
  62    1.6837172063022e-06
  63    -7.4175710316898e-06
  64    5.9123581097621e-05
  65    3.0829164626533e-05
  66    5.1196692810642e-05
  67    -2.069132846411e-05
  68    2.0474291224294e-06
  69    3.9691211788109e-06
  70    2.5213343568356e-05
  71    -1.1352211149859e-05
  72    -6.3213113622807e-05
  73    0.00010298390117495
  74    5.4408295272831e-05
  75    9.0615532321349e-06
  76     6.15461633484e-05
 Sym= A
 Ene=               2
 Spin= Alpha
 Occup=    1.00000
   1    1.8004162891761e-05
   2    1.3419924407159e-05
   3    -0.00080345167812766
   4    -0.00013854003958871
   5    2.2312563123284e-06
   6    1.7362858826592e-06
   7    -0.0002279614701876
   8    8.1378008700044e-05
   9    -0.00016968625038744
  10    6.6122910835338e-05
  11    -2.4938492466687e-05
  12    -1.7365344046401e-05
  13    -1.7967340722561e-05
  14    1.9244133270503e-06
  15    -0.00016166207764068
  16    0.00024077608856076
  17    0.0027210899368919
  18    0.00034504205558151
  19    -4.1570864835915e-06
  20    0.00085147105248451
  21    8.2136942849772e-05
  22    1.6539389810678e-05
  23      0.00134764992836
  24    0.00014893273889662
  25    9.8764222060758e-05
  26    -4.051715546415e-06
  27    1.5501254731229e-05
  28    6.9912202808024e-06
  29       1.0009627129869
  30    0.0008878963684676
  31    -0.0050945785882414
  32    -0.00064274126912707
  33    -1.6825329034566e-05
  34    -0.0019670414521008
  35    0.00023296409455656
  36    -1.5412246085865e-05
  37    0.00066956049030344
  38    -0.00014322628086764
  39    -7.9035078753299e-05
  40    2.8215737233524e-06
  41    -7.7609759462414e-06
  42    1.4463036311027e-06
  43    -0.00023898095189719
  44    -0.00015111645010365
  45    -5.3848697419138e-06
  46    -4.2102453602439e-06
  47    -0.00014939169566883
  48    -0.00026076916314045
  49    -0.00015439722983329
  50    1.9334425105485e-07
  51    5.3830635613526e-06
  52    -0.00015489083282719
  53    2.1399148098688e-05
  54    -5.7242218107152e-06
  55    -7.4264944110808e-05
  56    -1.3637299619312e-05
  57    -1.5118993335719e-05
  58    2.9981726254063e-05
  59    6.0446340994337e-05
  60    -6.6399697701888e-05
  61    3.6956168591509e-05
  62    -1.4231798761878e-06
  63    4.6321838102146e-07
  64    -0.00011421078962735
  65    -5.8099001756042e-06
  66    -1.4459881180492e-05
  67    4.9692987516391e-06
  68    -7.2457928894481e-06
  69    1.5198988310357e-06
  70    -1.4536439993161e-05
  71    7.216478746501e-06
  72    3.6866977422314e-05
  73    0.00018676028946033
  74    3.111280550813e-05
  75    -2.0539339896153e-05
  76    3.0139995824931e-05
 Sym= A
 Ene=               3
 Spin= Alpha
 Occup=    1.00000
   1    -0.00016145884150262
   2    0.00024526284874402
   3    0.0027235648812104
   4    -0.00034733809131333
   5    0.00084178012241126
   6    0.00014407143704052
   7    -8.2568794388254e-05
   8    0.0013241443175258
   9    0.00025050772513482
  10    -8.1931212534743e-05
  11    -2.4060913569583e-05
  12    4.3205676306362e-05
  13    -0.0001179138113223
  14    -9.623584767873e-05
  15    1.8022114162072e-05
  16    1.2873797583207e-05
  17    -0.00080389684424477
  18    0.00013846238299102
  19    -1.2218338872968e-08
  20    2.7892020014951e-06
  21    0.00022861507789901
  22    -0.00018141132257154
  23    5.0432844046951e-05
  24    -2.0151638013858e-05
  25    2.4329190523129e-06
  26    2.6820808198444e-07
  27    -6.766389743981e-05
  28    2.4696478267155e-05
  29    2.9960726759127e-05
  30    6.0426079106997e-05
  31    -6.6178927161226e-05
  32    -3.6974034813738e-05
  33    6.8817280398986e-07
  34    -1.3476071269502e-06
  35    0.00011406331091073
  36    -1.3172754200211e-05
  37    -8.2793427711282e-06
  38    1.0393412112567e-05
  39    -5.8512793379118e-06
  40    4.3596223704975e-07
  41    -1.1399687455015e-05
  42    8.3892714270623e-06
  43    3.7606301834382e-05
  44    0.00018727023399344
  45    -3.1134514681537e-05
  46    3.3209344208404e-05
  47    -1.4964894690293e-05
  48    1.9837007326584e-05
  49    -7.0449513353048e-06
  50    7.4352724706679e-05
  51    -1.2420108069519e-05
  52    -1.6118873000995e-05
  53    -0.0002595493255805
  54    -0.00015512097760612
  55    -2.1000777906115e-07
  56    -0.0001532433084046
  57    -2.1722943852998e-05
  58       1.0009627834674
  59    0.00086964149479804
  60    -0.0051164052997754
  61    0.00064588727163652
  62    -0.0019473338657507
  63    -0.00035658762551062
  64    -0.00023073640508938
  65    0.00065304747161928
  66    0.00010225257578929
  67    7.2311094749139e-05
  68    1.2300595684642e-05
  69    -4.1058852666847e-05
  70    0.00011650187408299
  71    7.7933982154488e-05
  72    -0.00023692405255165
  73    -0.0001510014541089
  74    5.3834911051539e-06
  75    -0.00014619213710669
  76    -2.9903694620891e-05
 Sym= A
 Ene=               4
 Spin= Alpha
 Occup=    1.00000
   1    -0.0014451223238592
   2    -0.0012524450704272
   3     0.015354943984754
   4     0.000412514797663
   5    -0.0070537018722397
   6    0.0032626451045756
   7    -0.004739638198246
   8    -0.019294643391442
   9     0.018354408626349
  10    0.0002353154775195
  11    1.9622791184732e-05
  12    0.00063094215866584
  13    -0.00069801430898973
  14    -0.0021059685480104
  15    0.00020289689620782
  16    0.00054084968713124
  17    -0.0007096742122584
  18    0.00042044010072491
  19    -0.0066877134863568
  20    0.0014848659151785
  21    -0.0024602431506427
  22       0.0313051585477
  23    -0.0024988043744449
  24    -0.00049345853262624
  25    0.00075748879188732
  26     0.036256298634298
  27    0.00046068902054037
  28    0.0076277534959602
  29    0.0002060058277436
  30    -0.004808806569484
  31    -0.005586407602738
  32    0.0093671049009915
  33      0.66687658238468
  34    -0.0046845312476575
  35    0.0073464423506265
  36      0.47176078637054
  37    -0.0035638264556728
  38    0.00023462338923198
  39    -0.00010228844901536
  40    -0.011904055030726
  41    0.00015435436176961
  42    -0.004389760097476
  43     0.054251594722202
  44     0.056263991346095
  45    -0.00059031387754694
  46    -0.0010339350632322
  47    0.0019654226485771
  48    -0.054027042730735
  49    -0.052840402003509
  50    0.0003402369321246
  51    -0.00096313752168743
  52    -0.0013827027298311
  53    -0.0012801370877091
  54    -0.028812299938143
  55    -0.0024829196139589
  56    -0.00037266985520702
  57    -0.00010322610099748
  58    -0.00051631697849643
  59    -0.0010965474997359
  60    0.0052025071524099
  61    -0.0015241045762294
  62    0.00070452492578225
  63    -0.0041210948130375
  64    0.0003398740518652
  65    0.00089538201933809
  66    -0.0029454495525182
  67    9.3169194838493e-05
  68    0.00029568381282094
  69    -0.00010300740550159
  70    0.00013346395752032
  71    5.3164903226076e-05
  72    -0.0013399331607472
  73    0.0075291370023579
  74    0.0011679268841006
  75    0.0003136104520746
  76    0.00020867058537265
 Sym= A
 Ene=               5
 Spin= Alpha
 Occup=    1.00000
   1    0.00015974119509909
   2    0.00038130074623635
   3    -0.00071520953425934
   4    -0.00035560651820585
   5    0.0018295805836017
   6    -0.0022171005110606
   7    0.0033066796533625
   8    -0.0086376977983001
   9     0.031744385006083
  10     0.010621985253793
  11    -0.0076316854194818
  12      0.03392707293672
  13    0.0061157301093782
  14    0.0014153393528329
  15    -0.0014691303818744
  16    -0.0022072127244809
  17     0.012836431684114
  18    0.0010317388124851
  19    0.0035926204768493
  20    -0.0060445438694044
  21    0.0055623474383258
  22     0.021779781422693
  23    -0.015063254673815
  24    0.00061519090155707
  25    0.0018818758516808
  26    0.00057584948394759
  27    -0.00052191145814618
  28    -0.00034228644398073
  29    -0.00050070653381454
  30    -0.0011028704956695
  31    0.0048833665415939
  32    0.0015692452588652
  33    -0.0042048773793496
  34    8.2453385498781e-05
  35    -0.0003446851087208
  36    -0.0030848824830721
  37    0.00042835269848653
  38    -0.00018531994758549
  39    -0.00012398227104232
  40    -3.0701778471493e-05
  41    -2.7921710260286e-05
  42    -0.00028376536625663
  43    -0.00041822292713838
  44    0.0087231472939738
  45    -0.0010927684296771
  46    0.00018965328849272
  47    0.00037721566702869
  48    -0.0019455315729996
  49    -0.028140199691537
  50    0.0024207217919662
  51    2.9015535812088e-05
  52    -0.00042835770166314
  53    -0.050291404527771
  54    -0.051045037025977
  55    -0.00027536981104391
  56    -0.0010323450876205
  57    -0.0012733192122998
  58    0.00014880563741969
  59    -0.0040032096500492
  60     -0.00416631078155
  61     0.010001526034159
  62     -0.11401788802672
  63      0.65698776368853
  64    0.0064060370888551
  65    -0.080957660818817
  66      0.46445331045494
  67    -0.0037842938608114
  68    0.0042963629924205
  69    -0.011192612319369
  70    -0.0019318693619131
  71    -0.00097548090365718
  72       0.0519783673461
  73     0.055769987585956
  74    0.00041099594230447
  75    0.0020518105315195
  76    -0.00080226888394607
 Sym= A
 Ene=               6
 Spin= Alpha
 Occup=    1.00000
   1    0.0012380539048699
   2     0.031823781296456
   3     0.082110460578162
   4     0.047672877941857
   5    -0.0038159899863151
   6     0.014308068169628
   7     0.028504097135582
   8    -0.014731223975168
   9    -0.022485603212445
  10    -0.0025461399641965
  11    0.00042702927567887
  12    -0.00082989705452206
  13    0.00047454062530724
  14    0.00037405880123831
  15    0.0016076979217174
  16    0.00030453771979353
  17    -0.0025505585832713
  18    -0.0022576019541124
  19    0.00019012497804372
  20    -0.00078093321975779
  21      0.02975769390778
  22    0.0013299383792631
  23      0.01435217054509
  24    -0.018455287932833
  25     0.027310616358842
  26    -0.00094148797092589
  27     0.014336880544257
  28    -6.8766020428176e-05
  29    0.0014603886191401
  30    -0.0028978340831744
  31    -0.017049186925026
  32      0.63601679182921
  33    -0.010355980032462
  34     -0.19772985939089
  35      0.45103524661558
  36    -0.0075428694170387
  37     -0.13707695297828
  38    0.0063457064417241
  39    -0.010500635696173
  40    0.00025389181824336
  41    -0.0037652410513928
  42    -7.1031447706768e-05
  43    -0.029408912016165
  44    -0.025879706701201
  45    -0.0016977233195893
  46    -0.00017501271987137
  47    -0.0013179471668023
  48    -0.025968393204603
  49    -0.022950982228072
  50    -0.001806562557965
  51    0.00017616548682217
  52    -0.0013285191923915
  53     0.014925452483626
  54    -0.014507553854741
  55    -0.0019374908641924
  56     0.001094365215937
  57    -0.0010526760873028
  58    -0.00041604010596149
  59    -0.00061822415109544
  60    0.0031387208969699
  61    -0.0015348344712273
  62    0.0011860237740424
  63    0.0020278501970916
  64    -0.0048114197914543
  65    0.0011626796929959
  66    0.0029108797492688
  67    -0.00031006879912214
  68    -0.00030897852724771
  69    -0.00029167564329476
  70    3.2085988522348e-05
  71    -0.00069720429384905
  72      -0.0221236634602
  73    -0.036053767740546
  74    0.0025171697941041
  75    -0.00072040978873849
  76    -0.0013673217261625
 Sym= A
 Ene=               7
 Spin= Alpha
 Occup=    1.00000
   1    -0.0015605758392543
   2    -0.0017169854921715
   3    0.0016995299326103
   4    -0.0013930843254286
   5     0.001747926230897
   6    0.00040466924562629
   7          0.0299798137
   8    -0.013273077460701
   9    -0.0046045794238209
  10    0.0034940519452871
  11    0.0048779415438012
  12    0.0028895798498198
  13    -0.022932329046772
  14     0.026778145411149
  15    -0.0011998065258177
  16    -0.031062996421741
  17     -0.08205028934502
  18     0.047861031561697
  19    -0.015752459331033
  20    0.0010781864429139
  21     0.028372422452343
  22     0.018558113992171
  23     0.018729293089547
  24    -0.00054325964652578
  25    0.00034954902898676
  26    0.0014833239158881
  27    -0.0022838930325073
  28    0.0002961509850836
  29    0.00042753607158699
  30    0.00062693491548682
  31    -0.0033495600814419
  32    -0.0015641263125925
  33    -0.0016413036550856
  34    -0.0014393116436994
  35    -0.0047888501584259
  36    -0.0024973528757203
  37    -0.0015808454267008
  38    -1.3715860133733e-05
  39    -0.00073615970878472
  40    0.00037503989268451
  41    -0.00022793546425152
  42    -0.00017251536197677
  43      0.02339695194772
  44     0.036214858615439
  45    0.0024995460254887
  46    0.0012874694104044
  47    0.00097687441122901
  48    -0.015000082270489
  49      0.01516914216347
  50    -0.0020071009479316
  51    0.0011968564160529
  52    -0.00088819740759633
  53     0.026292709404566
  54     0.024238401776385
  55      -0.0018279540768
  56    0.0013189257225103
  57    0.00021314722110412
  58    -0.001455934618001
  59    0.0033334426542204
  60     0.017574629118952
  61      0.63608314701751
  62       0.1962274050455
  63     0.024336823853322
  64      0.45106110897733
  65      0.13599490466874
  66     0.016930507642329
  67    -0.00023417815510292
  68    -0.0020269150953231
  69    -0.0011378315883829
  70    0.0073028652505259
  71    -0.010313382033853
  72     0.026268458612479
  73     0.023770264272307
  74    -0.0017527897909539
  75    0.0011860113833355
  76    0.00028795456415343
 Sym= A
 Ene=               8
 Spin= Alpha
 Occup=    1.00000
   1    0.0030707676300919
   2     -0.13963633183958
   3     0.010861913060672
   4     0.090681779877097
   5     -0.27355528597048
   6    -0.047980495473353
   7     0.024326894021055
   8    -0.048325109022076
   9    -0.010065453105388
  10     0.027266656586186
  11    0.0046252807796854
  12    -0.015645384961711
  13     0.038413862371684
  14      0.02966671631959
  15    -0.00026821206830299
  16     0.013843196116428
  17    -0.0093611975746084
  18    -0.023790775399659
  19    0.0079950757434808
  20    -0.00044815497932182
  21    -0.011791457406134
  22    -0.00074505266084223
  23      0.00360567328292
  24    0.00038718812199991
  25    0.0017826949945031
  26    -0.00070504562805352
  27    -0.0043759068605742
  28     0.010732861931154
  29    0.00013613029876374
  30    -6.9408881510481e-05
  31    -0.0015294254228271
  32    0.0010417641192682
  33    -0.00020654230722968
  34    -0.00069794344898006
  35    0.0057553967143301
  36    -0.00060136191016132
  37    -0.00083768109443566
  38    -5.7192817610191e-05
  39    0.00048879476722711
  40    -0.0001802868384089
  41    0.0001891855828029
  42    0.00019720677882707
  43    -0.021005333143687
  44    -0.019250643782792
  45    0.00038247786749074
  46    0.00096110102591543
  47    -0.00054188181381505
  48     0.014325402703381
  49     0.020961418870196
  50    -0.00078265524111842
  51    -0.00062734612874278
  52    -0.00029286748435803
  53     0.016482574677816
  54     0.019159915686516
  55    0.0013839141597618
  56    -0.0098464266342009
  57    -4.6560800221268e-05
  58    0.0072981146237189
  59     -0.22618712445888
  60     -0.20723029261753
  61     -0.13338519893305
  62      0.43366552483284
  63     0.075413704347496
  64    -0.087206104471858
  65      0.28337316228914
  66     0.049375066656965
  67    0.0091970273067698
  68    0.0017660506054544
  69    -0.005457309738694
  70     0.013600540211308
  71      0.01002984415606
  72     0.015769856429287
  73     0.018815698555963
  74    0.0015043196339615
  75    -0.0092373443365065
  76    -0.0032533593750809
 Sym= A
 Ene=               9
 Spin= Alpha
 Occup=    1.00000
   1    -0.00030924560613641
   2     0.014131701813647
   3    -0.0092123240672177
   4     0.023392884470237
   5    -0.0017295400564221
   6    0.0054858314310185
   7     0.011684085466975
   8    0.0037290740659814
   9    -0.00091296203900256
  10    0.0033382577315528
  11    -0.010826519280321
  12    -0.0012038704681281
  13    -0.0026674101778379
  14    0.00010029553513006
  15    0.0030151197822083
  16     -0.13884940354082
  17     0.011299117121008
  18    -0.090028073608743
  19    0.00019967842425884
  20      -0.2784976893848
  21     -0.02405522218701
  22    -0.0014731810069984
  23    -0.049664602964883
  24      -0.0493127199864
  25    -0.029917262984837
  26    -4.2497967604419e-05
  27    -0.0058231528019968
  28    0.00058233518668055
  29    0.0072900130105603
  30     -0.22621273985773
  31     -0.20717046229072
  32      0.13364226114406
  33    -0.0011046763417236
  34      0.44004632623657
  35      0.08730657210684
  36    -0.00063049687276997
  37      0.28757886311148
  38    -0.017205947620079
  39    -0.010195972448166
  40    -7.5937586237151e-05
  41    -0.0016614847976241
  42    2.0692974807545e-06
  43     0.016637873614746
  44     0.019033438958669
  45    -0.0015281413557907
  46    -0.0015116631485463
  47    -0.0096311770273611
  48     0.017246456683102
  49     0.019207301838985
  50     -0.00139191285119
  51    0.0015738948177487
  52    -0.0096781773850367
  53     0.013099080770606
  54      0.02051530124935
  55    0.00071879566938446
  56    -0.00023206760426407
  57    -0.00065460423164152
  58    0.00013377570212621
  59    -8.0515192823386e-05
  60    -0.0015469514515199
  61    -0.001044310270722
  62    -0.00063343792705651
  63    -0.00023808067263923
  64    -0.0057335219653911
  65    -0.00072136698231881
  66    -0.00053459405955832
  67    -0.0001771880476351
  68    -0.00028671442488143
  69    -0.00012145556914068
  70    0.00011402829255721
  71    -0.00044085572813452
  72    -0.018960046516736
  73    -0.018472469292275
  74    -0.00030954455835225
  75    -0.00064380125287555
  76    0.00096480167384523
 Sym= A
 Ene=              10
 Spin= Alpha
 Occup=    1.00000
   1    -0.0066952297180713
   2    -0.069417745939361
   3     -0.03641755375319
   4     0.030180925430373
   5     -0.09242685435261
   6    -0.016131804187926
   7    0.00023958461848264
   8    -0.0099455877927072
   9    -0.0026672403171676
  10    0.0035924211374305
  11    2.6930265704799e-05
  12    -0.0013755974773818
  13    0.0042139287752728
  14    0.0029205076082209
  15    -0.00085451850596773
  16    -0.0020779640493953
  17    0.0044314276773585
  18    -0.0015016517355781
  19     -0.00758975338527
  20    -0.00031766283919075
  21    -0.017038450216401
  22    -0.0067481603612529
  23    0.0069054939035578
  24    0.00081052994625805
  25    0.0011305864578993
  26    1.3437056258417e-05
  27    -0.0010498546043183
  28    0.0044836535629574
  29    0.00049366763195213
  30    0.00090787828802437
  31    -0.0035329186950613
  32    0.00043367289842735
  33    0.00054174868636643
  34    -0.00099808022668111
  35    0.0034968864989453
  36    0.0012031466383523
  37    -0.00041525040654294
  38    -3.906341589994e-05
  39    1.6361789272602e-05
  40    5.6325461733562e-05
  41    -1.5359185315611e-05
  42    0.00012858561882851
  43    -0.0013565124261861
  44    -0.0030115009616539
  45    -0.00037383236627086
  46    0.0010896605370613
  47    0.00012139897030121
  48     -0.00115823702196
  49     0.017166869908966
  50    -3.3954211984886e-05
  51    -0.0003029460154718
  52    5.9737548836826e-05
  53    -0.0023160877905376
  54     0.013698691823535
  55    0.0011208588378783
  56    -0.0039911537898641
  57    -0.00072587689564347
  58    -0.0019451799173723
  59      0.43886060994517
  60      0.52609662188247
  61     -0.10091569920535
  62      0.29679222104785
  63      0.05877165565697
  64    -0.069269469942366
  65      0.20509406134902
  66     0.040382097367392
  67    0.0037444106816717
  68    0.00076407783948206
  69    -0.0024194397724365
  70    0.0056826136546014
  71     0.004203431214754
  72    -0.0015009975294716
  73     0.015288537193006
  74    0.0013549292621047
  75    -0.0039618337888379
  76    -0.00059838611602413
 Sym= A
 Ene=              11
 Spin= Alpha
 Occup=    1.00000
   1    -0.00085796062419602
   2    -0.0023470050805609
   3      0.00425149375117
   4    0.0015398971853531