[Molden Format]
made by pyscf v[2.0.1]
[Atoms] (AU)
C   1   6     0.00000000000000     0.00000000000000     0.00000000000000
C   2   6     2.85207482267819     0.00000000000000     0.00000000000000
F   3   9     3.65415199667903     0.00000000000000     2.45977207315200
H   4   1     3.58561868306314    -1.66499644088808    -0.96128614334650
H   5   1     3.58561868306314     1.66499644088808    -0.96128614334650
H   6   1    -0.73354386038494    -1.80662699073290    -0.65755844904870
F   7   9    -0.80207717400084     0.42713493797885     2.42240260828301
H   8   1    -0.73354386038494     1.47277581671572    -1.23580564461298
[GTO]
1 0
 s    8 1.00
                  6665  0.00069158396281299
                  1000  0.0053257961529341
                   228   0.027060721042034
                 64.71    0.10165684614077
                 21.06     0.2745748236174
                 7.495    0.44829431892377
                 2.797    0.28490261071525
                0.5215   0.015194859206082
 s    8 1.00
                  6665  -0.00029326965268655
                  1000  -0.0023180354739745
                   228  -0.011499786038565
                 64.71  -0.046826727009787
                 21.06   -0.12846616875047
                 7.495   -0.30126627246289
                 2.797   -0.25563070233011
                0.5215      1.093793361012
 s    1 1.00
                0.1596                   1
 p    3 1.00
                 9.439   0.056979251590039
                 2.002    0.31320721150073
                0.5456    0.76037674173753
 p    1 1.00
                0.1517                   1
 d    1 1.00
                  0.55                   1

2 0
 s    8 1.00
                  6665  0.00069158396281299
                  1000  0.0053257961529341
                   228   0.027060721042034
                 64.71    0.10165684614077
                 21.06     0.2745748236174
                 7.495    0.44829431892377
                 2.797    0.28490261071525
                0.5215   0.015194859206082
 s    8 1.00
                  6665  -0.00029326965268655
                  1000  -0.0023180354739745
                   228  -0.011499786038565
                 64.71  -0.046826727009787
                 21.06   -0.12846616875047
                 7.495   -0.30126627246289
                 2.797   -0.25563070233011
                0.5215      1.093793361012
 s    1 1.00
                0.1596                   1
 p    3 1.00
                 9.439   0.056979251590039
                 2.002    0.31320721150073
                0.5456    0.76037674173753
 p    1 1.00
                0.1517                   1
 d    1 1.00
                  0.55                   1

3 0
 s    8 1.00
                 14710  0.00072067370873197
                  2207  0.0055504869689163
                 502.8   0.028254207662589
                 142.6    0.10639582836653
                 46.47    0.28668420124307
                  16.7    0.44843796582416
                 6.356    0.26464118141135
                 1.316   0.015326060993048
 s    8 1.00
                 14710  -0.00032119389049893
                  2207  -0.0025461915683188
                 502.8  -0.012643359507821
                 142.6   -0.05195749170489
                 46.47   -0.14344713812646
                  16.7   -0.33243762329603
                 6.356   -0.21865906750347
                 1.316     1.0955904138622
 s    1 1.00
                0.3897                   1
 p    3 1.00
                 22.67   0.064834021493887
                 4.977    0.34053535983101
                 1.347    0.73464640679382
 p    1 1.00
                0.3471                   1
 d    1 1.00
                  1.64                   1

4 0
 s    3 1.00
                 13.01   0.033498726389998
                 1.962    0.23480080117413
                0.4446     0.8136829578829
 s    1 1.00
                 0.122                   1
 p    1 1.00
                 0.727                   1

5 0
 s    3 1.00
                 13.01   0.033498726389998
                 1.962    0.23480080117413
                0.4446     0.8136829578829
 s    1 1.00
                 0.122                   1
 p    1 1.00
                 0.727                   1

6 0
 s    3 1.00
                 13.01   0.033498726389998
                 1.962    0.23480080117413
                0.4446     0.8136829578829
 s    1 1.00
                 0.122                   1
 p    1 1.00
                 0.727                   1

7 0
 s    8 1.00
                 14710  0.00072067370873197
                  2207  0.0055504869689163
                 502.8   0.028254207662589
                 142.6    0.10639582836653
                 46.47    0.28668420124307
                  16.7    0.44843796582416
                 6.356    0.26464118141135
                 1.316   0.015326060993048
 s    8 1.00
                 14710  -0.00032119389049893
                  2207  -0.0025461915683188
                 502.8  -0.012643359507821
                 142.6   -0.05195749170489
                 46.47   -0.14344713812646
                  16.7   -0.33243762329603
                 6.356   -0.21865906750347
                 1.316     1.0955904138622
 s    1 1.00
                0.3897                   1
 p    3 1.00
                 22.67   0.064834021493887
                 4.977    0.34053535983101
                 1.347    0.73464640679382
 p    1 1.00
                0.3471                   1
 d    1 1.00
                  1.64                   1

8 0
 s    3 1.00
                 13.01   0.033498726389998
                 1.962    0.23480080117413
                0.4446     0.8136829578829
 s    1 1.00
                 0.122                   1
 p    1 1.00
                 0.727                   1

[5d]
[7f]
[9g]

[MO]
 Sym= A
 Ene=               0
 Spin= Alpha
 Occup=    1.00000
   1       1.0021114287466
   2    0.0049243360065408
   3    -0.0084401339184269
   4    -0.00030452596163972
   5    0.00013739456124672
   6    0.00064341958053839
   7    -0.0011136973215694
   8    7.1449891900154e-05
   9    0.00038828635800065
  10    9.4272485284182e-05
  11    1.4764751697638e-05
  12    -2.3480753644932e-06
  13    -0.00012812930442112
  14    -3.2341101194722e-06
  15    -0.0002048311866683
  16    4.8880012578797e-05
  17    0.0029053099834319
  18    -0.00039136296727499
  19    -7.8378653266453e-07
  20    -2.4884541796965e-05
  21    -0.0012810405653179
  22    1.3046594497547e-05
  23    2.9639651624013e-06
  24    4.5729722655835e-05
  25    0.00011431016521357
  26    8.7094495605842e-07
  27    -6.4002192542772e-05
  28    2.0814658629828e-05
  29     -2.7572103085e-05
  30    -3.6667225491737e-05
  31    -4.7359578805158e-05
  32    -7.0879002589065e-06
  33    -3.4936643091105e-07
  34    -1.0474560526421e-05
  35    -0.00014564243939192
  36    -1.9943908281475e-06
  37    6.6061693558361e-05
  38    -2.278504383284e-05
  39    1.4800818605988e-05
  40    9.1167926800044e-07
  41    3.5403772301997e-05
  42    -2.5704588177114e-07
  43    -8.5338190049902e-05
  44    7.8418809218775e-05
  45    -5.7272696488714e-05
  46    4.6294782026542e-05
  47    1.388025190931e-05
  48    -9.6933933785009e-05
  49    6.8899159618143e-05
  50    -5.792530217545e-05
  51    -3.8111562127366e-05
  52    1.105553149541e-05
  53    0.00063113801646304
  54    0.0014197221755184
  55    3.4355522170229e-05
  56    -0.00016627706116694
  57    -0.00013226966488105
  58    0.00014431752750857
  59    0.00063871772660262
  60    0.00012721242977101
  61    0.0001050417911408
  62    -6.1407873972637e-05
  63    -0.00034897603923777
  64    -0.00016895646840223
  65    0.00013209538307729
  66     0.000737134465944
  67    -0.00017109730853942
  68    0.00010908273867891
  69    -5.7815885867766e-05
  70    -1.941548607768e-05
  71    1.9570226140886e-05
  72    0.00061107307448308
  73    0.0014120203954294
  74    2.8379040973636e-05
  75    0.00012101804331854
  76    -0.00019358629419788
 Sym= A
 Ene=               1
 Spin= Alpha
 Occup=    1.00000
   1    -0.00020478647836853
   2    4.9004593102609e-05
   3    0.0029054771268003
   4    0.00039177793491922
   5    -3.1625635158159e-06
   6    -2.4526175702133e-05
   7    0.0012812448494542
   8    -1.2193235058414e-05
   9    5.1474802849912e-06
  10    4.561663434994e-05
  11    -0.00011613009652436
  12    1.7618279712002e-06
  13    -6.4108124778822e-05
  14    6.4703338079519e-07
  15       1.0021115393404
  16    0.0049222687212976
  17    -0.0084413326088547
  18    0.00030302626706906
  19    -2.3340584074029e-05
  20    0.00065906129367393
  21    0.0011131367401565
  22    -2.8632802921431e-06
  23    0.00039542451270286
  24    9.2711094403875e-05
  25    -1.3923295964972e-05
  26    8.2044187312941e-06
  27    -0.00012894591721695
  28    -5.7590468698728e-06
  29    0.00014451894549888
  30    0.00063879063643688
  31    0.00012729053668341
  32    -0.00010511238672188
  33    -1.3418822252118e-07
  34    -0.00035451355820396
  35    0.00016901255332701
  36    -2.1111394608356e-06
  37    0.00074868268268297
  38    -0.00018000810642037
  39    -0.00011080996609189
  40    3.2690567490088e-07
  41    -2.4532965285665e-05
  42    3.3005139036224e-07
  43    0.00060881633114522
  44    0.0014114567887444
  45    -2.8323979541704e-05
  46    -0.00015300474211826
  47    -0.00016969875224621
  48    0.00062919102422334
  49    0.0014192533019254
  50    -3.4316980498329e-05
  51    0.00014097743062749
  52    -0.00015918868256501
  53    -9.73309117761e-05
  54    6.8710911790601e-05
  55    5.7922508880237e-05
  56    3.9422650875836e-05
  57    4.2655954173492e-06
  58    -2.7590172186916e-05
  59    -3.6688051212964e-05
  60    -4.7405370345831e-05
  61    7.0592943554582e-06
  62    -1.4782426732846e-06
  63    -1.0307227867243e-05
  64    0.00014556513775148
  65    1.3407844340054e-05
  66    6.4754604193063e-05
  67    -2.2410868263477e-05
  68    -1.4539502757165e-05
  69    -1.55658832282e-06
  70    3.5625530721828e-05
  71    -2.8233914414047e-06
  72    -8.5208178240323e-05
  73    7.8439941118676e-05
  74     5.72941982853e-05
  75    -4.3170775078772e-05
  76    2.1715424362879e-05
 Sym= A
 Ene=               2
 Spin= Alpha
 Occup=    1.00000
   1    -0.00017536272426411
   2    0.00025807361823106
   3    0.0030928826345227
   4    -0.00035654427092698
   5    0.00015890605764537
   6    0.00090156305588578
   7    5.4762761190507e-05
   8    0.00022897477365246
   9     0.001395986720941
  10    0.00013011501133069
  11    -8.0158229477548e-05
  12    4.7197567172129e-05
  13    1.7356957858582e-05
  14    -2.0469954138399e-05
  15    2.9174954616112e-05
  16    2.4034266940289e-05
  17    -0.0011143522147664
  18    9.6150950232788e-05
  19    -6.6476014855636e-06
  20    7.7141656264984e-07
  21    0.00050058273005597
  22    -1.6831230649014e-05
  23    -0.00040736945383354
  24    6.4615065350777e-05
  25    2.8208046307862e-05
  26    1.7874500624478e-05
  27    1.8531584469649e-05
  28    -2.4959018676016e-06
  29    -4.7927335686297e-05
  30    -9.9463071193994e-05
  31    0.00025744168564258
  32    2.8082159285717e-05
  33    -7.1352687186089e-06
  34    3.328813327537e-05
  35    -4.2133565511665e-05
  36    1.8529210696211e-05
  37    -6.0745116136331e-05
  38    -7.1617499366466e-07
  39    -2.2164114768593e-06
  40    1.5897170505778e-06
  41    -1.1998075289615e-05
  42    2.2337276978303e-07
  43    6.9025439137594e-05
  44    3.8524954184237e-05
  45    -4.0994649782026e-05
  46    -4.8177850610733e-06
  47    5.5518019057517e-05
  48    9.2300710588126e-05
  49    -6.2344724312087e-05
  50    -1.7576239389943e-05
  51    8.3077623269594e-07
  52    4.7183577384425e-05
  53    -0.00027342683118961
  54    -0.00016133387720958
  55    1.0031078023444e-06
  56    -3.4032348637326e-05
  57    -0.00015101817174598
  58       1.0009619116167
  59    0.00059467983414311
  60    -0.0054583269828187
  61    0.00057217127921996
  62    -0.00036270591758855
  63    -0.0021851858775086
  64    -0.00025601088587463
  65    0.00010336976265452
  66    0.00052719020322908
  67    -0.00013288556624465
  68    8.2742819828708e-05
  69    -4.1736561375177e-05
  70    -1.2470084073231e-06
  71    1.382527947003e-05
  72    -0.0002755845599321
  73    -0.00014175617562174
  74    2.2726969582783e-06
  75    -1.9145133795116e-05
  76    -0.00015386634389029
 Sym= A
 Ene=               3
 Spin= Alpha
 Occup=    1.00000
   1    2.8455773066421e-05
   2    2.0785583373423e-05
   3    -0.0011165237364516
   4    -9.8107214559683e-05
   5    6.3417771806429e-06
   6    -5.0775820595274e-06
   7    -0.00050214666288627
   8    -5.5209193583289e-05
   9    -0.00040536069063429
  10    6.7497734126463e-05
  11    -3.0958913901337e-05
  12    5.7391282457499e-06
  13    1.9055551876555e-05
  14    -7.5368673622635e-06
  15    -0.00018028401917095
  16     0.000211813408417
  17    0.0030776562369835
  18    0.00033535653328904
  19    4.5688887082958e-08
  20    0.00085721110489989
  21    -6.4476379534816e-05
  22    1.8022929599915e-05
  23    0.0014065821993576
  24    0.00013551178989785
  25    7.835025172424e-05
  26    -1.6632074692207e-06
  27    2.0322006862939e-05
  28    -6.0071643333339e-06
  29       1.0009609820585
  30    0.00086973242256709
  31    -0.0051276723214258
  32    -0.00055652397405754
  33    -2.4500779560978e-06
  34    -0.0020111445280622
  35    0.0002668219599375
  36    3.5594976243629e-06
  37    0.00067690399088946
  38    -0.00014430415513705
  39    -8.5633297510129e-05
  40    -7.6545023638638e-07
  41    -5.0760739549264e-06
  42    -8.5855564100328e-07
  43    -0.00027553774459408
  44    -0.00012846620966001
  45    -2.8563307301661e-06
  46    -8.0504146925477e-06
  47    -0.00015728855386015
  48    -0.00027639567693414
  49    -0.00015141423160192
  50    -1.5557575452435e-06
  51    7.3712855340266e-06
  52    -0.00015712533568163
  53    9.203781297732e-05
  54    -6.4321130258675e-05
  55    1.7793387755004e-05
  56     7.67816723229e-06
  57    4.6548746807945e-05
  58    -4.8390198761798e-05
  59    -0.00010109495566085
  60    0.00025838990429619
  61    -3.2290500806256e-05
  62    1.2811955683306e-05
  63    2.843805751642e-05
  64    4.1655261598623e-05
  65    -2.8719877528671e-05
  66    -5.7058041939841e-05
  67    -1.5883834070183e-07
  68    2.4762796952876e-06
  69    -3.8333350235578e-06
  70    -1.1317137785005e-05
  71    6.0479410958226e-07
  72    6.8320723760786e-05
  73    3.6744143913198e-05
  74    4.1259495121373e-05
  75    1.4055624479061e-05
  76    5.4073620467977e-05
 Sym= A
 Ene=               4
 Spin= Alpha
 Occup=    1.00000
   1    0.0002726733861547
   2    -0.00035339196004945
   3    -0.004425052785531
   4    -0.0013040450996757
   5    -0.0034249798198984
   6    -0.0012077683237162
   7    -0.0074057800022773
   8    -0.0059584765623935
   9    -0.0057156118811281
  10    -0.00010641940941349
  11    -0.00019809219199889
  12    0.00098383023868596
  13    0.00015769712188674
  14    -0.0017900774529684
  15    -0.00013883019652222
  16    0.0006015934608912
  17    0.0058023467826025
  18    -0.00056182417314453
  19    -0.006052026426333
  20    0.00097012399991726
  21    -0.0053294234473641
  22     0.030610549734368
  23    -0.00030692085744241
  24    0.0006204824992405
  25    -0.00099525230965769
  26        0.036778544912
  27    -0.00022489766961741
  28    0.0080481370345516
  29    7.2415250823094e-05
  30    -0.00019948431218708
  31    -0.00020332806349892
  32    -0.019441240165485
  33       0.6672095760069
  34    0.0033926751489277
  35    -0.013430097979983
  36      0.47122088461029
  37    0.0021304727662206
  38    -1.5064873185356e-05
  39    0.00038555862003946
  40    -0.012201837149625
  41    0.00020608580525331
  42    -0.0041575752309638
  43     0.055244004119447
  44     0.057581445892562
  45    -0.00043181773376931
  46    -0.00099795222815609
  47    0.0017370619335094
  48    -0.054304648627974
  49    -0.055446281813485
  50    0.00056221172687809
  51    -0.00092282776264521
  52    -0.001590606372761
  53    0.00051854682101838
  54    -0.004284662743233
  55    0.0016298763960453
  56    0.00031850811357256
  57    8.9392112740445e-05
  58    -0.00062864651714825
  59    -0.0017015103460123
  60    0.0032359461635017
  61    -0.0026807567253825
  62    -0.0050592492505632
  63    -0.00036120868988081
  64    2.2424508421617e-05
  65    0.00027010170442938
  66    -0.00087467655622381
  67    -0.00017383628590372
  68    8.7575993724942e-05
  69    9.3767406528728e-05
  70    0.00032319099716043
  71    0.00052324359668264
  72    -0.00052417359767455
  73    -0.0030422392699178
  74    -0.0015792985858719
  75    0.00051218621450278
  76    -0.00025312117841688
 Sym= A
 Ene=               5
 Spin= Alpha
 Occup=    1.00000
   1    0.00011160198264213
   2    -0.00067245128953174
   3    -0.0056179380715163
   4    -0.00053178284759812
   5    -0.001985853585995
   6    -0.00073931884973462
   7    -0.0049994842495731
   8     0.031700004332937
   9    -0.0053893509518057
  10     -0.01132264930002
  11    0.00062728686500081
  12       0.0342481447718
  13    -0.0061089934832279
  14    -0.0082358107559241
  15    -0.00027987989165808
  16    0.00019096334897986
  17    0.0039027751020145
  18    -0.00097060496292414
  19    -0.0034688662927838
  20    0.0016699934523606
  21    -0.0070083611948903
  22    -0.0049680574497821
  23    0.0067047920899976
  24    -0.00016518275714475
  25    -0.00045060743148628
  26    0.00094466716009589
  27    -0.00032951116041975
  28    0.0015089250068585
  29    0.00061840221064343
  30     0.001646806634333
  31    -0.0032453623607121
  32    -0.0025935660298126
  33    -0.0048932779994226
  34    0.0011983697867107
  35    -2.7556967566566e-07
  36    0.00042881018698992
  37    0.00082096825592521
  38    0.00013754976505314
  39    0.00016630379814553
  40    9.0750147381657e-05
  41    -0.00033025929172466
  42    -0.00050458846457227
  43    0.0010699198607976
  44    0.0035199547709215
  45    -0.0015732905878768
  46    0.00055840345307127
  47     0.000162895340768
  48    -0.00094105686251424
  49    0.0038843132637781
  50    0.0016485160604553
  51    0.00028215791062733
  52    -0.00015443660899329
  53     0.051377874096491
  54     0.054355073466538
  55    0.00042359793771472
  56    -0.00075988408152449
  57    0.0016413994640252
  58    -0.00010988895962836
  59    0.00070897436938454
  60    0.00089839696037203
  61    -0.015492261624994
  62      0.65677093844168
  63      -0.1176465476111
  64    -0.010643614453114
  65      0.46362860082208
  66    -0.082817318227231
  67    0.0036077850728739
  68    -0.00040997897715896
  69    -0.011567893006773
  70    0.0019163732629464
  71    0.0041657031249381
  72    -0.051960671881901
  73    -0.056113824741586
  74    -0.00031498908497122
  75    -0.001375726907119
  76    -0.0014028061647816
 Sym= A
 Ene=               6
 Spin= Alpha
 Occup=    1.00000
   1    0.00043351717560894
   2     0.027146325226456
   3     0.083871921786604
   4     0.050456071966383
   5    -0.0011231370283591
   6    0.0053729806086571
   7     0.058735112147516
   8    0.0027867104760837
   9    -0.017917341854897
  10    -0.0012512150518098
  11    0.0016365155122326
  12    0.00046559701811035
  13    0.00091017725692827
  14    0.00036333885533161
  15    0.0019984442340316
  16    -0.0027500538673505
  17    -0.030439462629934
  18    0.00032887894762078
  19    -0.00022482115098043
  20    -0.0051568368393174
  21     0.046588794297604
  22    0.00051026297892228
  23     0.014369472721462
  24    -0.018316816326874
  25     0.029255779864476
  26    0.0010629155532404
  27     0.014118408157057
  28    0.00045034810266638
  29    0.00085420426991536
  30     0.012073883487385
  31    0.0026500948812194
  32      0.63962699187747
  33     0.018990511361235
  34     -0.19006138070108
  35      0.45035542593357
  36      0.01380306884539
  37     -0.12974726568145
  38    0.0059727080037863
  39     -0.01118508880967
  40    -0.00031077037883328
  41    -0.0034530346709422
  42    -0.00026657969336367
  43    -0.025360960121474
  44    -0.023774848786669
  45    -0.0020392204843853
  46    9.8408102489663e-05
  47    -0.0014300428279662
  48    -0.028568017483685
  49    -0.026556136873427
  50    -0.0019992616694083
  51    -6.9706760283781e-05
  52    -0.0016145131598355
  53    -0.004654783405549
  54    -0.0081215168795446
  55    0.0021006692980895
  56    -0.001046422109874
  57    0.0016828703181006
  58    0.00089608905430585
  59    0.0078310772800725
  60     0.010423979853587
  61     0.013856205202791
  62    -0.0024005403896929
  63    0.00041932104566846
  64     0.001234294977519
  65    -0.0026326832889522
  66    -0.0044644369934417
  67    0.0012481437894555
  68    -0.0015395754592953
  69    0.00027810528563903
  70    -0.0014113082303171
  71     0.000155265945125
  72    -0.010927105975524
  73    -0.016455473656464
  74    0.0020950052657261
  75    0.0015087953300004
  76    0.00058391115297966
 Sym= A
 Ene=               7
 Spin= Alpha
 Occup=    1.00000
   1    -0.0019424909134562
   2    0.0012903097733706
   3     0.029584336352776
   4    0.0012424655965779
   5    0.0009932867335746
   6    0.0061087861062412
   7     0.046948942753513
   8    -0.0020667934409664
   9    -0.013779779212427
  10     0.017651832493009
  11     0.028830045851509
  12    0.0038167757695484
  13    -0.014441605015376
  14    0.0046645343757478
  15    -0.00043121533893835
  16    -0.026520649541493
  17    -0.083457115119534
  18     0.050586068023896
  19    -0.0022511102062548
  20    -0.0054091199612909
  21     0.058789944980461
  22    0.0057935880003845
  23     0.016934708075162
  24    0.0010815365341923
  25    0.0016283360537666
  26    0.00066061000093159
  27    -0.0010572985965903
  28    -0.0001049474834571
  29    -0.00090797635611122
  30    -0.0078767205858038
  31      -0.0104496241161
  32     0.013915346547966
  33    -0.0024000778358576
  34    8.9952154170838e-05
  35    0.0012711536633951
  36    -0.0018019619193586
  37    0.0049266613370789
  38    -0.0013062179097578
  39    -0.0014889890572394
  40    0.00013605471572365
  41    0.0013774841366172
  42    -0.00041648254729678
  43     0.011576794644641
  44     0.016600983506705
  45    0.0020780948975696
  46    0.0014278903721654
  47    -0.00081640704951906
  48    0.0049408160653956
  49    0.0080827713542104
  50    0.0020795588926339
  51    -0.0013602133156176
  52    -0.0014641134526592
  53     0.026729878352089
  54     0.025839546298575
  55    -0.0020389119003339
  56    7.4937051288002e-05
  57     0.001570159103333
  58    -0.00079130547087699
  59    -0.011591488470276
  60    -0.0020929599610466
  61      0.63974192692593
  62     0.047546000751734
  63      0.18459844399513
  64      0.45037620044249
  65      0.03317355934265
  66      0.12584837172436
  67    -0.0057435162662303
  68    -0.011065935565448
  69    -0.0014048265217414
  70    0.0036038122505551
  71    -0.0017068724615656
  72     0.024386669754072
  73     0.023858757956576
  74    -0.0020682341491517
  75    0.00047484674631777
  76    0.0013393722460588
 Sym= A
 Ene=               8
 Spin= Alpha
 Occup=    1.00000
   1    0.0021912200885394
   2     -0.14337947014108
   3       0.0173747037197
   4     0.092443952648745
   5    -0.049623933594613
   6     -0.27618620959457
   7     0.032980387065563
   8    -0.0093035879167479
   9    -0.051413332850973
  10    -0.046823089064222
  11     0.028297817437497
  12    -0.015849877247486
  13    -0.0039933151742306
  14    0.0052618655290378
  15    -0.00082458653083896
  16    0.0092172500939817
  17    -0.012200040376438
  18    -0.028054871530338
  19    0.0011406665335294
  20    -0.0031661412213351
  21    -0.0034155998754396
  22    0.00035383243487692
  23    -0.0014298963426705
  24    0.0055022183853876
  25     0.011238310949579
  26    0.00050043274768248
  27    -0.0014878915659168
  28    0.0018511689463786
  29    -0.00026235344652156
  30    0.0021129327324327
  31    0.0063977031536807
  32    -0.0051421903891284
  33    -0.00019455443684333
  34    -0.0099738608883392
  35    -0.0059893698120389
  36    0.00023824171223553
  37    -0.0053912559774825
  38    -0.00013538937346718
  39    0.00027779494402854
  40    1.9945821191336e-05
  41    -0.00030719916540046
  42    6.175866432374e-05
  43    -0.011238912415501
  44    -0.013273089544808
  45    -0.0013149044818868
  46    6.8008705935187e-05
  47    0.0014987565682939
  48    -0.0034653092328334
  49    -0.0082912132744093
  50    -0.0018325724646728
  51    -0.00035765090932416
  52    0.0013410897573406
  53     0.014759785798978
  54       0.0207388890379
  55    0.0014553794818585
  56    -0.0032001092618785
  57    -0.0092630525659257
  58    0.0072550062808034
  59     -0.22322604257511
  60     -0.20121783323491
  61     -0.13396970995004
  62     0.074822444672549
  63      0.43197461045881
  64    -0.088234681950302
  65     0.048609565264468
  66      0.28160910215337
  67    -0.016665635106631
  68     0.010048112696177
  69    -0.0053322593661515
  70    -0.0011535852572208
  71      0.00171486625246
  72     0.013627589495983
  73     0.020018455007296
  74    0.0014742246088494
  75    -8.7366803750996e-05
  76    -0.0099074150680003
 Sym= A
 Ene=               9
 Spin= Alpha
 Occup=    1.00000
   1    -0.00088354111978304
   2    0.0099724970697703
   3    -0.011769930162138
   4     0.027364586072943
   5    -0.0013545604425905
   6    -0.0036588937337147
   7    0.0031546540824064
   8    -0.00048787907250838
   9    -0.0016128267990937
  10    0.0054193790157889
  11    -0.011383711766707
  12    0.00087120989134788
  13    -0.0015512298282481
  14    -0.00013608306459321
  15    0.0021349031798829
  16     -0.14266858379304
  17     0.017739112324244
  18    -0.091757618975907
  19    0.00098444210345439
  20     -0.28123817060762
  21    -0.032688633642475
  22    0.00026905133683474
  23    -0.052471397546557
  24    -0.049325341996355
  25    -0.028767431612191
  26    0.00033929818248218
  27    -0.0054456819196583
  28    0.00025365105738104
  29     0.007244444102389
  30     -0.22328251545054
  31     -0.20127150308525
  32      0.13413841867893
  33    0.0013589220600725
  34      0.43836473190119
  35      0.08829161014097
  36    0.0010460483274577
  37       0.2857732636957
  38    -0.017446392394499
  39    -0.010203760844344
  40    -0.00012450544317157
  41    -0.001618194751769
  42    -5.6850528818463e-05
  43     0.014398046403642
  44     0.020232395934665
  45    -0.0014856619017313
  46    -0.0015570420429959
  47    -0.009751391785135
  48     0.015589767356498
  49     0.020932400959518
  50    -0.0014720981745309
  51    0.0014596486098299
  52    -0.0096536508472154
  53    -0.0029297616286609
  54    -0.0081876746637776
  55    0.0018347195270155
  56    0.00065760247782709
  57    0.0012575189423776
  58    -0.00026875410076323
  59    0.0020867821498624
  60    0.0063802727659746
  61    0.0051480300120598
  62    -0.0015440281901037
  63    -0.0097826969252649
  64    0.0060512998878663
  65    -0.0011969584200314
  66    -0.0051849783593692
  67    -0.00010121882808882
  68    -0.00027705942469753
  69    -0.00011444527370449
  70    -0.00029971980751337
  71    1.5509435827965e-05
  72    -0.010071950507091
  73    -0.012924904368024
  74    0.0013436773504304
  75    0.00010507658723959
  76    0.0015394917249258
 Sym= A
 Ene=              10
 Spin= Alpha
 Occup=    1.00000
   1    -0.0011592931297125
   2    -0.0035892801894954
   3    0.0030305090005404
   4    -0.00015037934104316
   5    2.6401257163697e-05
   6    -0.0071858344743786
   7    0.0021151650875207
   8    -0.00098928574902671
   9    -0.0031117986740975
  10    0.0014667076109223
  11    -0.0056429074392609
  12    0.00033620647587506
  13    -0.00079848009344355
  14    -0.00019836367646824
  15    -0.0075826745400258
  16     -0.06989920659647
  17    -0.025260810753301
  18    -0.030326218943338
  19    0.00010506198987561
  20    -0.094204892315542
  21    -0.010233532118609
  22    0.00032647911971002
  23    -0.012263079736602
  24    -0.0048320636347687
  25    -0.0041329868267099
  26    0.00023322855758921
  27    -0.0013539611493176
  28    -6.3962619423708e-06
  29    -0.0018154850738373
  30      0.44087044733171
  31      0.52866857710476
  32     0.076277093285257
  33    0.0015229282967995
  34      0.30723034347569
  35     0.053194204136601
  36    0.0008300021155987
  37       0.2109466855664
  38    -0.0074924523361394
  39    -0.0036623460077587
  40    -0.00010024677681511
  41    -0.00057945989832202
  42    7.0079565106525e-06
  43     -0.00101863105057
  44     0.017416904781822
  45    -0.0011377191292072
  46    0.00010475792647555
  47    -0.003916781172109
  48    -0.001166987395195
  49     0.016988352692602
  50    -0.0011221110913326
  51    -0.000176413593458
  52    -0.0038710865572873
  53    -0.0010700958307218
  54    -0.0035419323274566
  55    0.00038316983106572
  56    0.00037917010844367
  57    3.5090919846981e-06
  58    -0.00057315518025782
  59    -0.0017913222604154
  60    0.0023285906456624
  61    -0.0052397307542017
  62    8.5273966407645e-06
  63    -0.0050145294947461
  64    -0.00039933685025685
  65    -0.00016326981176018
  66    -0.0011079136869784
  67    -0.00029615685802774
  68    0.0004158076120157
  69    -0.00010785719344217
  70    0.00020328131209752
  71    -8.8483477571033e-06
  72    -0.0014476818788203
  73    -0.003637745938174
  74    0.00064146443393207
  75    -0.00045801999643019
  76    0.00044075369879929
 Sym= A
 Ene=              11
 Spin= Alpha
 Occup=    1.00000
   1    -0.0075515677581646
   2    -0.070483457541571
   3    -0.025627887892689